<?xml version="1.0" encoding="UTF-8"?>

<!-- generated on 2023-12-15 17:16:31 by Eclipse SUMO GUI Version 1.18.0
<configuration xmlns:xsi="http://www.w3.org/2001/XMLSchema-instance" xsi:noNamespaceSchemaLocation="http://sumo.dlr.de/xsd/sumoConfiguration.xsd">

    <input>
        <net-file value="C:\Users\vinay\Desktop\ECE_699\Intersection\study1-explore_SUMO\scenario_2\intersec_2.net.xml"/>
        <route-files value="C:\Users\vinay\Desktop\ECE_699\Intersection\study1-explore_SUMO\scenario_2\scene2.rou.xml"/>
    </input>

    <output>
        <fcd-output value="C:\Users\vinay\Desktop\ECE_699\Intersection\study1-explore_SUMO\scenario_2\outputs/fcd_op.xml"/>
        <fcd-output.geo value="true"/>
        <fcd-output.signals value="true"/>
        <fcd-output.distance value="true"/>
        <fcd-output.acceleration value="true"/>
        <summary-output value="C:\Users\vinay\Desktop\ECE_699\Intersection\study1-explore_SUMO\scenario_2\outputs/sum_op.xml"/>
        <lanechange-output value="C:\Users\vinay\Desktop\ECE_699\Intersection\study1-explore_SUMO\scenario_2\outputs/lane_change_op.xml"/>
        <lanechange-output.started value="true"/>
        <lanechange-output.ended value="true"/>
        <lanechange-output.xy value="true"/>
        <collision-output value="C:\Users\vinay\Desktop\ECE_699\Intersection\study1-explore_SUMO\scenario_2\outputs/collision.xml"/>
        <statistic-output value="C:\Users\vinay\Desktop\ECE_699\Intersection\study1-explore_SUMO\scenario_2\outputs/stats.xml"/>
    </output>

    <time>
        <step-length value="0.1"/>
    </time>

    <processing>
        <collision.action value="remove"/>
        <collision.stoptime value="30.00"/>
        <collision.check-junctions value="true"/>
    </processing>

</configuration>
-->

<fcd-export xmlns:xsi="http://www.w3.org/2001/XMLSchema-instance" xsi:noNamespaceSchemaLocation="http://sumo.dlr.de/xsd/fcd_file.xsd">
    <timestep time="0.00">
        <vehicle id="f_0.0" x="101.600000" y="-94.900000" angle="0.00" type="DEFAULT_VEHTYPE" speed="0.00" pos="5.10" lane="-E3_2" slope="0.00" signals="0" acceleration="0.00" distance="5.10"/>
        <vehicle id="v_0.0" x="10.000000" y="-4.800000" angle="90.00" type="DEFAULT_VEHTYPE" speed="0.00" pos="10.00" lane="E0_1" slope="0.00" signals="0" acceleration="0.00" distance="10.00"/>
        <vehicle id="v_1.0" x="30.000000" y="-8.000000" angle="90.00" type="t_0" speed="0.00" pos="30.00" lane="E0_0" slope="0.00" signals="0" acceleration="0.00" distance="30.00"/>
        <vehicle id="v_2.0" x="0.000000" y="-1.600000" angle="90.00" type="DEFAULT_VEHTYPE" speed="0.00" pos="0.00" lane="E0_2" slope="0.00" signals="0" acceleration="0.00" distance="0.00"/>
    </timestep>
    <timestep time="0.10">
        <vehicle id="f_0.0" x="101.600000" y="-94.874352" angle="0.00" type="DEFAULT_VEHTYPE" speed="0.26" pos="5.13" lane="-E3_2" slope="0.00" signals="0" acceleration="2.56" distance="5.13"/>
        <vehicle id="v_0.0" x="10.025128" y="-4.800000" angle="90.00" type="DEFAULT_VEHTYPE" speed="0.25" pos="10.03" lane="E0_1" slope="0.00" signals="0" acceleration="2.51" distance="10.03"/>
        <vehicle id="v_1.0" x="30.001490" y="-8.000000" angle="90.00" type="t_0" speed="0.01" pos="30.00" lane="E0_0" slope="0.00" signals="8" acceleration="0.15" distance="30.00"/>
        <vehicle id="v_2.0" x="0.025280" y="-1.600000" angle="90.00" type="DEFAULT_VEHTYPE" speed="0.25" pos="0.03" lane="E0_2" slope="0.00" signals="0" acceleration="2.53" distance="0.03"/>
    </timestep>
    <timestep time="0.20">
        <vehicle id="f_0.0" x="101.600000" y="-94.824169" angle="0.00" type="DEFAULT_VEHTYPE" speed="0.50" pos="5.18" lane="-E3_2" slope="0.00" signals="0" acceleration="2.45" distance="5.18"/>
        <vehicle id="v_0.0" x="10.074101" y="-4.800000" angle="90.00" type="DEFAULT_VEHTYPE" speed="0.49" pos="10.07" lane="E0_1" slope="0.00" signals="0" acceleration="2.38" distance="10.07"/>
        <vehicle id="v_1.0" x="30.005734" y="-8.000000" angle="90.00" type="t_0" speed="0.04" pos="30.01" lane="E0_0" slope="0.00" signals="8" acceleration="0.28" distance="30.01"/>
        <vehicle id="v_2.0" x="0.075261" y="-1.600000" angle="90.00" type="DEFAULT_VEHTYPE" speed="0.50" pos="0.08" lane="E0_2" slope="0.00" signals="0" acceleration="2.47" distance="0.08"/>
    </timestep>
    <timestep time="0.30">
        <vehicle id="f_0.0" x="101.600000" y="-94.749888" angle="0.00" type="DEFAULT_VEHTYPE" speed="0.74" pos="5.25" lane="-E3_2" slope="0.00" signals="0" acceleration="2.41" distance="5.25"/>
        <vehicle id="v_0.0" x="10.149045" y="-4.800000" angle="90.00" type="DEFAULT_VEHTYPE" speed="0.75" pos="10.15" lane="E0_1" slope="0.00" signals="0" acceleration="2.60" distance="10.15"/>
        <vehicle id="v_1.0" x="30.014850" y="-8.000000" angle="90.00" type="t_0" speed="0.09" pos="30.01" lane="E0_0" slope="0.00" signals="8" acceleration="0.49" distance="30.01"/>
        <vehicle id="v_2.0" x="0.150736" y="-1.600000" angle="90.00" type="DEFAULT_VEHTYPE" speed="0.75" pos="0.15" lane="E0_2" slope="0.00" signals="0" acceleration="2.55" distance="0.15"/>
    </timestep>
    <timestep time="0.40">
        <vehicle id="f_0.0" x="101.600000" y="-94.649648" angle="0.00" type="DEFAULT_VEHTYPE" speed="1.00" pos="5.35" lane="-E3_2" slope="0.00" signals="0" acceleration="2.60" distance="5.35"/>
        <vehicle id="v_0.0" x="10.249200" y="-4.800000" angle="90.00" type="DEFAULT_VEHTYPE" speed="1.00" pos="10.25" lane="E0_1" slope="0.00" signals="0" acceleration="2.52" distance="10.25"/>
        <vehicle id="v_1.0" x="30.032025" y="-8.000000" angle="90.00" type="t_0" speed="0.17" pos="30.03" lane="E0_0" slope="0.00" signals="0" acceleration="0.81" distance="30.03"/>
        <vehicle id="v_2.0" x="0.249041" y="-1.600000" angle="90.00" type="DEFAULT_VEHTYPE" speed="0.98" pos="0.25" lane="E0_2" slope="0.00" signals="0" acceleration="2.28" distance="0.25"/>
    </timestep>
    <timestep time="0.50">
        <vehicle id="f_0.0" x="101.600000" y="-94.528505" angle="0.00" type="DEFAULT_VEHTYPE" speed="1.21" pos="5.47" lane="-E3_2" slope="0.00" signals="0" acceleration="2.09" distance="5.47"/>
        <vehicle id="v_0.0" x="10.373848" y="-4.800000" angle="90.00" type="DEFAULT_VEHTYPE" speed="1.25" pos="10.37" lane="E0_1" slope="0.00" signals="0" acceleration="2.45" distance="10.37"/>
        <vehicle id="v_1.0" x="30.061332" y="-8.000000" angle="90.00" type="t_0" speed="0.29" pos="30.06" lane="E0_0" slope="0.00" signals="0" acceleration="1.21" distance="30.06"/>
        <vehicle id="v_2.0" x="0.369581" y="-1.600000" angle="90.00" type="DEFAULT_VEHTYPE" speed="1.21" pos="0.37" lane="E0_2" slope="0.00" signals="0" acceleration="2.22" distance="0.37"/>
    </timestep>
    <timestep time="0.60">
        <vehicle id="f_0.0" x="101.600000" y="-94.388162" angle="0.00" type="DEFAULT_VEHTYPE" speed="1.40" pos="5.61" lane="-E3_2" slope="0.00" signals="0" acceleration="1.92" distance="5.61"/>
        <vehicle id="v_0.0" x="10.523444" y="-4.800000" angle="90.00" type="DEFAULT_VEHTYPE" speed="1.50" pos="10.52" lane="E0_1" slope="0.00" signals="0" acceleration="2.49" distance="10.52"/>
        <vehicle id="v_1.0" x="30.107024" y="-8.000000" angle="90.00" type="t_0" speed="0.46" pos="30.11" lane="E0_0" slope="0.00" signals="0" acceleration="1.64" distance="30.11"/>
        <vehicle id="v_2.0" x="0.512155" y="-1.600000" angle="90.00" type="DEFAULT_VEHTYPE" speed="1.43" pos="0.51" lane="E0_2" slope="0.00" signals="0" acceleration="2.20" distance="0.51"/>
    </timestep>
    <timestep time="0.70">
        <vehicle id="f_0.0" x="101.600000" y="-94.229482" angle="0.00" type="DEFAULT_VEHTYPE" speed="1.59" pos="5.77" lane="-E3_2" slope="0.00" signals="0" acceleration="1.83" distance="5.77"/>
        <vehicle id="v_0.0" x="10.695270" y="-4.800000" angle="90.00" type="DEFAULT_VEHTYPE" speed="1.72" pos="10.70" lane="E0_1" slope="0.00" signals="0" acceleration="2.22" distance="10.70"/>
        <vehicle id="v_1.0" x="30.172694" y="-8.000000" angle="90.00" type="t_0" speed="0.66" pos="30.17" lane="E0_0" slope="0.00" signals="0" acceleration="2.00" distance="30.17"/>
        <vehicle id="v_2.0" x="0.680079" y="-1.600000" angle="90.00" type="DEFAULT_VEHTYPE" speed="1.68" pos="0.68" lane="E0_2" slope="0.00" signals="0" acceleration="2.54" distance="0.68"/>
    </timestep>
    <timestep time="0.80">
        <vehicle id="f_0.0" x="101.600000" y="-94.048183" angle="0.00" type="DEFAULT_VEHTYPE" speed="1.81" pos="5.95" lane="-E3_2" slope="0.00" signals="0" acceleration="2.26" distance="5.95"/>
        <vehicle id="v_0.0" x="10.888244" y="-4.800000" angle="90.00" type="DEFAULT_VEHTYPE" speed="1.93" pos="10.89" lane="E0_1" slope="0.00" signals="0" acceleration="2.11" distance="10.89"/>
        <vehicle id="v_1.0" x="30.260878" y="-8.000000" angle="90.00" type="t_0" speed="0.88" pos="30.26" lane="E0_0" slope="0.00" signals="0" acceleration="2.25" distance="30.26"/>
        <vehicle id="v_2.0" x="0.864422" y="-1.600000" angle="90.00" type="DEFAULT_VEHTYPE" speed="1.84" pos="0.86" lane="E0_2" slope="0.00" signals="0" acceleration="1.64" distance="0.86"/>
    </timestep>
    <timestep time="0.90">
        <vehicle id="f_0.0" x="101.600000" y="-93.844425" angle="0.00" type="DEFAULT_VEHTYPE" speed="2.04" pos="6.16" lane="-E3_2" slope="0.00" signals="0" acceleration="2.25" distance="6.16"/>
        <vehicle id="v_0.0" x="11.102459" y="-4.800000" angle="90.00" type="DEFAULT_VEHTYPE" speed="2.14" pos="11.10" lane="E0_1" slope="0.00" signals="0" acceleration="2.12" distance="11.10"/>
        <vehicle id="v_1.0" x="30.373143" y="-8.000000" angle="90.00" type="t_0" speed="1.12" pos="30.37" lane="E0_0" slope="0.00" signals="0" acceleration="2.41" distance="30.37"/>
        <vehicle id="v_2.0" x="1.070908" y="-1.600000" angle="90.00" type="DEFAULT_VEHTYPE" speed="2.06" pos="1.07" lane="E0_2" slope="0.00" signals="0" acceleration="2.21" distance="1.07"/>
    </timestep>
    <timestep time="1.00">
        <vehicle id="f_0.0" x="101.600000" y="-93.623188" angle="0.00" type="DEFAULT_VEHTYPE" speed="2.21" pos="6.38" lane="-E3_2" slope="0.00" signals="0" acceleration="1.75" distance="6.38"/>
        <vehicle id="v_0.0" x="11.335781" y="-4.800000" angle="90.00" type="DEFAULT_VEHTYPE" speed="2.33" pos="11.34" lane="E0_1" slope="0.00" signals="0" acceleration="1.91" distance="11.34"/>
        <vehicle id="v_1.0" x="30.510382" y="-8.000000" angle="90.00" type="t_0" speed="1.37" pos="30.51" lane="E0_0" slope="0.00" signals="0" acceleration="2.50" distance="30.51"/>
        <vehicle id="v_2.0" x="1.296200" y="-1.600000" angle="90.00" type="DEFAULT_VEHTYPE" speed="2.25" pos="1.30" lane="E0_2" slope="0.00" signals="0" acceleration="1.88" distance="1.30"/>
    </timestep>
    <timestep time="1.10">
        <vehicle id="f_0.0" x="101.600000" y="-93.388194" angle="0.00" type="DEFAULT_VEHTYPE" speed="2.35" pos="6.61" lane="-E3_2" slope="0.00" signals="0" acceleration="1.38" distance="6.61"/>
        <vehicle id="v_0.0" x="11.588832" y="-4.800000" angle="90.00" type="DEFAULT_VEHTYPE" speed="2.53" pos="11.59" lane="E0_1" slope="0.00" signals="0" acceleration="1.97" distance="11.59"/>
        <vehicle id="v_1.0" x="30.673078" y="-8.000000" angle="90.00" type="t_0" speed="1.63" pos="30.67" lane="E0_0" slope="0.00" signals="0" acceleration="2.55" distance="30.67"/>
        <vehicle id="v_2.0" x="1.543718" y="-1.600000" angle="90.00" type="DEFAULT_VEHTYPE" speed="2.48" pos="1.54" lane="E0_2" slope="0.00" signals="0" acceleration="2.22" distance="1.54"/>
    </timestep>
    <timestep time="1.20">
        <vehicle id="f_0.0" x="101.600000" y="-93.129490" angle="0.00" type="DEFAULT_VEHTYPE" speed="2.59" pos="6.87" lane="-E3_2" slope="0.00" signals="0" acceleration="2.37" distance="6.87"/>
        <vehicle id="v_0.0" x="11.859700" y="-4.800000" angle="90.00" type="DEFAULT_VEHTYPE" speed="2.71" pos="11.86" lane="E0_1" slope="0.00" signals="0" acceleration="1.78" distance="11.86"/>
        <vehicle id="v_1.0" x="30.861484" y="-8.000000" angle="90.00" type="t_0" speed="1.88" pos="30.86" lane="E0_0" slope="0.00" signals="0" acceleration="2.57" distance="30.86"/>
        <vehicle id="v_2.0" x="1.812908" y="-1.600000" angle="90.00" type="DEFAULT_VEHTYPE" speed="2.69" pos="1.81" lane="E0_2" slope="0.00" signals="0" acceleration="2.17" distance="1.81"/>
    </timestep>
    <timestep time="1.30">
        <vehicle id="f_0.0" x="101.600000" y="-92.851059" angle="0.00" type="DEFAULT_VEHTYPE" speed="2.78" pos="7.15" lane="-E3_2" slope="0.00" signals="0" acceleration="1.97" distance="7.15"/>
        <vehicle id="v_0.0" x="12.153833" y="-4.800000" angle="90.00" type="DEFAULT_VEHTYPE" speed="2.94" pos="12.15" lane="E0_1" slope="0.00" signals="0" acceleration="2.33" distance="12.15"/>
        <vehicle id="v_1.0" x="31.075727" y="-8.000000" angle="90.00" type="t_0" speed="2.14" pos="31.08" lane="E0_0" slope="0.00" signals="0" acceleration="2.58" distance="31.08"/>
        <vehicle id="v_2.0" x="2.102331" y="-1.600000" angle="90.00" type="DEFAULT_VEHTYPE" speed="2.89" pos="2.10" lane="E0_2" slope="0.00" signals="0" acceleration="2.02" distance="2.10"/>
    </timestep>
    <timestep time="1.40">
        <vehicle id="f_0.0" x="101.600000" y="-92.548889" angle="0.00" type="DEFAULT_VEHTYPE" speed="3.02" pos="7.45" lane="-E3_2" slope="0.00" signals="0" acceleration="2.37" distance="7.45"/>
        <vehicle id="v_0.0" x="12.467709" y="-4.800000" angle="90.00" type="DEFAULT_VEHTYPE" speed="3.14" pos="12.47" lane="E0_1" slope="0.00" signals="0" acceleration="1.97" distance="12.47"/>
        <vehicle id="v_1.0" x="31.315941" y="-8.000000" angle="90.00" type="t_0" speed="2.40" pos="31.32" lane="E0_0" slope="0.00" signals="0" acceleration="2.60" distance="31.32"/>
        <vehicle id="v_2.0" x="2.416737" y="-1.600000" angle="90.00" type="DEFAULT_VEHTYPE" speed="3.14" pos="2.42" lane="E0_2" slope="0.00" signals="0" acceleration="2.50" distance="2.42"/>
    </timestep>
    <timestep time="1.50">
        <vehicle id="f_0.0" x="101.600000" y="-92.229189" angle="0.00" type="DEFAULT_VEHTYPE" speed="3.20" pos="7.77" lane="-E3_2" slope="0.00" signals="0" acceleration="1.75" distance="7.77"/>
        <vehicle id="v_0.0" x="12.804447" y="-4.800000" angle="90.00" type="DEFAULT_VEHTYPE" speed="3.37" pos="12.80" lane="E0_1" slope="0.00" signals="0" acceleration="2.29" distance="12.80"/>
        <vehicle id="v_1.0" x="31.582113" y="-8.000000" angle="90.00" type="t_0" speed="2.66" pos="31.58" lane="E0_0" slope="0.00" signals="0" acceleration="2.60" distance="31.58"/>
        <vehicle id="v_2.0" x="2.747550" y="-1.600000" angle="90.00" type="DEFAULT_VEHTYPE" speed="3.31" pos="2.75" lane="E0_2" slope="0.00" signals="0" acceleration="1.64" distance="2.75"/>
    </timestep>
    <timestep time="1.60">
        <vehicle id="f_0.0" x="101.600000" y="-91.885295" angle="0.00" type="DEFAULT_VEHTYPE" speed="3.44" pos="8.11" lane="-E3_2" slope="0.00" signals="0" acceleration="2.42" distance="8.11"/>
        <vehicle id="v_0.0" x="13.165224" y="-4.800000" angle="90.00" type="DEFAULT_VEHTYPE" speed="3.61" pos="13.17" lane="E0_1" slope="0.00" signals="0" acceleration="2.40" distance="13.17"/>
        <vehicle id="v_1.0" x="31.874228" y="-4.800000" angle="90.00" type="t_0" speed="2.92" pos="31.87" lane="E0_1" slope="0.00" signals="0" acceleration="2.59" distance="31.87"/>
        <vehicle id="v_2.0" x="3.099132" y="-1.600000" angle="90.00" type="DEFAULT_VEHTYPE" speed="3.52" pos="3.10" lane="E0_2" slope="0.00" signals="0" acceleration="2.08" distance="3.10"/>
    </timestep>
    <timestep time="1.70">
        <vehicle id="f_0.0" x="101.600000" y="-91.518554" angle="0.00" type="DEFAULT_VEHTYPE" speed="3.67" pos="8.48" lane="-E3_2" slope="0.00" signals="0" acceleration="2.28" distance="8.48"/>
        <vehicle id="v_0.0" x="13.544134" y="-4.800000" angle="90.00" type="DEFAULT_VEHTYPE" speed="3.79" pos="13.54" lane="E0_1" slope="0.00" signals="0" acceleration="1.81" distance="13.54"/>
        <vehicle id="v_1.0" x="32.192264" y="-4.800000" angle="90.00" type="t_0" speed="3.18" pos="32.19" lane="E0_1" slope="0.00" signals="0" acceleration="2.59" distance="32.19"/>
        <vehicle id="v_2.0" x="3.463874" y="-1.600000" angle="90.00" type="DEFAULT_VEHTYPE" speed="3.65" pos="3.46" lane="E0_2" slope="0.00" signals="0" acceleration="1.32" distance="3.46"/>
    </timestep>
    <timestep time="1.80">
        <vehicle id="f_0.0" x="101.600000" y="-91.137513" angle="0.00" type="DEFAULT_VEHTYPE" speed="3.81" pos="8.86" lane="-E3_2" slope="0.00" signals="0" acceleration="1.43" distance="8.86"/>
        <vehicle id="v_0.0" x="13.946832" y="-4.800000" angle="90.00" type="DEFAULT_VEHTYPE" speed="4.03" pos="13.95" lane="E0_1" slope="0.00" signals="0" acceleration="2.38" distance="13.95"/>
        <vehicle id="v_1.0" x="32.536830" y="-4.800000" angle="90.00" type="t_0" speed="3.45" pos="32.54" lane="E0_1" slope="0.00" signals="0" acceleration="2.65" distance="32.54"/>
        <vehicle id="v_2.0" x="3.852671" y="-1.600000" angle="90.00" type="DEFAULT_VEHTYPE" speed="3.89" pos="3.85" lane="E0_2" slope="0.00" signals="0" acceleration="2.41" distance="3.85"/>
    </timestep>
    <timestep time="1.90">
        <vehicle id="f_0.0" x="101.600000" y="-90.733101" angle="0.00" type="DEFAULT_VEHTYPE" speed="4.04" pos="9.27" lane="-E3_2" slope="0.00" signals="0" acceleration="2.34" distance="9.27"/>
        <vehicle id="v_0.0" x="14.368971" y="-4.800000" angle="90.00" type="DEFAULT_VEHTYPE" speed="4.22" pos="14.37" lane="E0_1" slope="0.00" signals="0" acceleration="1.94" distance="14.37"/>
        <vehicle id="v_1.0" x="32.896355" y="-4.800000" angle="90.00" type="t_0" speed="3.60" pos="32.90" lane="E0_1" slope="0.00" signals="0" acceleration="1.50" distance="32.90"/>
        <vehicle id="v_2.0" x="4.254995" y="-1.600000" angle="90.00" type="DEFAULT_VEHTYPE" speed="4.02" pos="4.25" lane="E0_2" slope="0.00" signals="0" acceleration="1.35" distance="4.25"/>
    </timestep>
    <timestep time="2.00">
        <vehicle id="f_0.0" x="101.600000" y="-90.311644" angle="0.00" type="DEFAULT_VEHTYPE" speed="4.21" pos="9.69" lane="-E3_2" slope="0.00" signals="0" acceleration="1.70" distance="9.69"/>
        <vehicle id="v_0.0" x="14.810210" y="-4.800000" angle="90.00" type="DEFAULT_VEHTYPE" speed="4.41" pos="14.81" lane="E0_1" slope="0.00" signals="0" acceleration="1.91" distance="14.81"/>
        <vehicle id="v_1.0" x="33.265977" y="-4.800000" angle="90.00" type="t_0" speed="3.70" pos="33.27" lane="E0_1" slope="0.00" signals="0" acceleration="1.01" distance="33.27"/>
        <vehicle id="v_2.0" x="4.671228" y="-1.600000" angle="90.00" type="DEFAULT_VEHTYPE" speed="4.16" pos="4.67" lane="E0_2" slope="0.00" signals="0" acceleration="1.39" distance="4.67"/>
    </timestep>
    <timestep time="2.10">
        <vehicle id="f_0.0" x="101.600000" y="-89.865813" angle="0.00" type="DEFAULT_VEHTYPE" speed="4.46" pos="10.13" lane="-E3_2" slope="0.00" signals="0" acceleration="2.44" distance="10.13"/>
        <vehicle id="v_0.0" x="15.273699" y="-4.800000" angle="90.00" type="DEFAULT_VEHTYPE" speed="4.63" pos="15.27" lane="E0_1" slope="0.00" signals="2" acceleration="2.23" distance="15.27"/>
        <vehicle id="v_1.0" x="33.647883" y="-4.800000" angle="90.00" type="t_0" speed="3.82" pos="33.65" lane="E0_1" slope="0.00" signals="0" acceleration="1.23" distance="33.65"/>
        <vehicle id="v_2.0" x="5.111648" y="-1.600000" angle="90.00" type="DEFAULT_VEHTYPE" speed="4.40" pos="5.11" lane="E0_2" slope="0.00" signals="0" acceleration="2.42" distance="5.11"/>
    </timestep>
    <timestep time="2.20">
        <vehicle id="f_0.0" x="101.600000" y="-89.405665" angle="0.00" type="DEFAULT_VEHTYPE" speed="4.60" pos="10.59" lane="-E3_2" slope="0.00" signals="0" acceleration="1.43" distance="10.59"/>
        <vehicle id="v_0.0" x="15.760882" y="-4.800000" angle="90.00" type="DEFAULT_VEHTYPE" speed="4.87" pos="15.76" lane="E0_1" slope="0.00" signals="2" acceleration="2.37" distance="15.76"/>
        <vehicle id="v_1.0" x="34.041808" y="-4.800000" angle="90.00" type="t_0" speed="3.94" pos="34.04" lane="E0_1" slope="0.00" signals="0" acceleration="1.20" distance="34.04"/>
        <vehicle id="v_2.0" x="5.574433" y="-1.600000" angle="90.00" type="DEFAULT_VEHTYPE" speed="4.63" pos="5.57" lane="E0_2" slope="0.00" signals="0" acceleration="2.24" distance="5.57"/>
    </timestep>
    <timestep time="2.30">
        <vehicle id="f_0.0" x="101.600000" y="-88.920301" angle="0.00" type="DEFAULT_VEHTYPE" speed="4.85" pos="11.08" lane="-E3_2" slope="0.00" signals="0" acceleration="2.52" distance="11.08"/>
        <vehicle id="v_0.0" x="16.267874" y="-4.800000" angle="90.00" type="DEFAULT_VEHTYPE" speed="5.07" pos="16.27" lane="E0_1" slope="0.00" signals="2" acceleration="1.98" distance="16.27"/>
        <vehicle id="v_1.0" x="34.443792" y="-4.800000" angle="90.00" type="t_0" speed="4.02" pos="34.44" lane="E0_1" slope="0.00" signals="0" acceleration="0.81" distance="34.44"/>
        <vehicle id="v_2.0" x="6.060631" y="-1.600000" angle="90.00" type="DEFAULT_VEHTYPE" speed="4.86" pos="6.06" lane="E0_2" slope="0.00" signals="0" acceleration="2.34" distance="6.06"/>
    </timestep>
    <timestep time="2.40">
        <vehicle id="f_0.0" x="101.600000" y="-88.413408" angle="0.00" type="DEFAULT_VEHTYPE" speed="5.07" pos="11.59" lane="-E3_2" slope="0.00" signals="0" acceleration="2.15" distance="11.59"/>
        <vehicle id="v_0.0" x="16.797157" y="-4.800000" angle="90.00" type="DEFAULT_VEHTYPE" speed="5.29" pos="16.80" lane="E0_1" slope="0.00" signals="2" acceleration="2.23" distance="16.80"/>
        <vehicle id="v_1.0" x="34.855681" y="-4.800000" angle="90.00" type="t_0" speed="4.12" pos="34.86" lane="E0_1" slope="0.00" signals="0" acceleration="0.99" distance="34.86"/>
        <vehicle id="v_2.0" x="6.569676" y="-1.600000" angle="90.00" type="DEFAULT_VEHTYPE" speed="5.09" pos="6.57" lane="E0_2" slope="0.00" signals="0" acceleration="2.28" distance="6.57"/>
    </timestep>
    <timestep time="2.50">
        <vehicle id="f_0.0" x="101.600000" y="-87.883213" angle="0.00" type="DEFAULT_VEHTYPE" speed="5.30" pos="12.12" lane="-E3_2" slope="0.00" signals="0" acceleration="2.33" distance="12.12"/>
        <vehicle id="v_0.0" x="17.351468" y="-4.800000" angle="90.00" type="DEFAULT_VEHTYPE" speed="5.54" pos="17.35" lane="E0_1" slope="0.00" signals="2" acceleration="2.50" distance="17.35"/>
        <vehicle id="v_1.0" x="35.269715" y="-4.800000" angle="90.00" type="t_0" speed="4.14" pos="35.27" lane="E0_1" slope="0.00" signals="0" acceleration="0.21" distance="35.27"/>
        <vehicle id="v_2.0" x="7.103933" y="-1.600000" angle="90.00" type="DEFAULT_VEHTYPE" speed="5.34" pos="7.10" lane="E0_2" slope="0.00" signals="0" acceleration="2.52" distance="7.10"/>
    </timestep>
    <timestep time="2.60">
        <vehicle id="f_0.0" x="101.600000" y="-87.327384" angle="0.00" type="DEFAULT_VEHTYPE" speed="5.56" pos="12.67" lane="-E3_2" slope="0.00" signals="0" acceleration="2.56" distance="12.67"/>
        <vehicle id="v_0.0" x="17.927557" y="-4.800000" angle="90.00" type="DEFAULT_VEHTYPE" speed="5.76" pos="17.93" lane="E0_1" slope="0.00" signals="2" acceleration="2.18" distance="17.93"/>
        <vehicle id="v_1.0" x="35.680892" y="-4.800000" angle="90.00" type="t_0" speed="4.11" pos="35.68" lane="E0_1" slope="0.00" signals="0" acceleration="-0.29" distance="35.68"/>
        <vehicle id="v_2.0" x="7.654476" y="-1.600000" angle="90.00" type="DEFAULT_VEHTYPE" speed="5.51" pos="7.65" lane="E0_2" slope="0.00" signals="0" acceleration="1.63" distance="7.65"/>
    </timestep>
    <timestep time="2.70">
        <vehicle id="f_0.0" x="101.600000" y="-86.750737" angle="0.00" type="DEFAULT_VEHTYPE" speed="5.77" pos="13.25" lane="-E3_2" slope="0.00" signals="0" acceleration="2.08" distance="13.25"/>
        <vehicle id="v_0.0" x="18.523619" y="-4.800000" angle="90.00" type="DEFAULT_VEHTYPE" speed="5.96" pos="18.52" lane="E0_1" slope="0.00" signals="2" acceleration="2.00" distance="18.52"/>
        <vehicle id="v_1.0" x="36.084789" y="-4.800000" angle="90.00" type="t_0" speed="4.04" pos="36.08" lane="E0_1" slope="0.00" signals="8" acceleration="-0.73" distance="36.08"/>
        <vehicle id="v_2.0" x="8.230169" y="-1.600000" angle="90.00" type="DEFAULT_VEHTYPE" speed="5.76" pos="8.23" lane="E0_2" slope="0.00" signals="0" acceleration="2.52" distance="8.23"/>
    </timestep>
    <timestep time="2.80">
        <vehicle id="f_0.0" x="101.600000" y="-86.158870" angle="0.00" type="DEFAULT_VEHTYPE" speed="5.92" pos="13.84" lane="-E3_2" slope="0.00" signals="0" acceleration="1.52" distance="13.84"/>
        <vehicle id="v_0.0" x="19.144116" y="-4.800000" angle="90.00" type="DEFAULT_VEHTYPE" speed="6.20" pos="19.14" lane="E0_1" slope="0.00" signals="2" acceleration="2.44" distance="19.14"/>
        <vehicle id="v_1.0" x="36.482784" y="-4.800000" angle="90.00" type="t_0" speed="3.98" pos="36.48" lane="E0_1" slope="0.00" signals="8" acceleration="-0.59" distance="36.48"/>
        <vehicle id="v_2.0" x="8.830987" y="-1.600000" angle="90.00" type="DEFAULT_VEHTYPE" speed="6.01" pos="8.83" lane="E0_2" slope="0.00" signals="0" acceleration="2.51" distance="8.83"/>
    </timestep>
    <timestep time="2.90">
        <vehicle id="f_0.0" x="101.600000" y="-85.552719" angle="0.00" type="DEFAULT_VEHTYPE" speed="6.06" pos="14.45" lane="-E3_2" slope="0.00" signals="0" acceleration="1.43" distance="14.45"/>
        <vehicle id="v_0.0" x="19.788929" y="-4.800000" angle="90.00" type="DEFAULT_VEHTYPE" speed="6.45" pos="19.79" lane="E0_1" slope="0.00" signals="2" acceleration="2.43" distance="19.79"/>
        <vehicle id="v_1.0" x="36.877274" y="-4.800000" angle="90.00" type="t_0" speed="3.94" pos="36.88" lane="E0_1" slope="0.00" signals="8" acceleration="-0.35" distance="36.88"/>
        <vehicle id="v_2.0" x="9.453194" y="-1.600000" angle="90.00" type="DEFAULT_VEHTYPE" speed="6.22" pos="9.45" lane="E0_2" slope="0.00" signals="0" acceleration="2.14" distance="9.45"/>
    </timestep>
    <timestep time="3.00">
        <vehicle id="f_0.0" x="101.600000" y="-84.921680" angle="0.00" type="DEFAULT_VEHTYPE" speed="6.31" pos="15.08" lane="-E3_2" slope="0.00" signals="0" acceleration="2.49" distance="15.08"/>
        <vehicle id="v_0.0" x="20.426110" y="-4.800000" angle="90.00" type="DEFAULT_VEHTYPE" speed="6.37" pos="20.43" lane="E0_1" slope="0.00" signals="10" acceleration="-0.76" distance="20.43"/>
        <vehicle id="v_1.0" x="37.273256" y="-4.800000" angle="90.00" type="t_0" speed="3.96" pos="37.27" lane="E0_1" slope="0.00" signals="0" acceleration="0.15" distance="37.27"/>
        <vehicle id="v_2.0" x="10.097765" y="-1.600000" angle="90.00" type="DEFAULT_VEHTYPE" speed="6.45" pos="10.10" lane="E0_2" slope="0.00" signals="0" acceleration="2.24" distance="10.10"/>
    </timestep>
    <timestep time="3.10">
        <vehicle id="f_0.0" x="101.600000" y="-84.272720" angle="0.00" type="DEFAULT_VEHTYPE" speed="6.49" pos="15.73" lane="-E3_2" slope="0.00" signals="0" acceleration="1.79" distance="15.73"/>
        <vehicle id="v_0.0" x="21.057765" y="-4.800000" angle="90.00" type="DEFAULT_VEHTYPE" speed="6.32" pos="21.06" lane="E0_1" slope="0.00" signals="10" acceleration="-0.55" distance="21.06"/>
        <vehicle id="v_1.0" x="37.672050" y="-4.800000" angle="90.00" type="t_0" speed="3.99" pos="37.67" lane="E0_1" slope="0.00" signals="0" acceleration="0.28" distance="37.67"/>
        <vehicle id="v_2.0" x="10.768063" y="-1.600000" angle="90.00" type="DEFAULT_VEHTYPE" speed="6.70" pos="10.77" lane="E0_2" slope="0.00" signals="0" acceleration="2.57" distance="10.77"/>
    </timestep>
    <timestep time="3.20">
        <vehicle id="f_0.0" x="101.600000" y="-83.606114" angle="0.00" type="DEFAULT_VEHTYPE" speed="6.67" pos="16.39" lane="-E3_2" slope="0.00" signals="0" acceleration="1.76" distance="16.39"/>
        <vehicle id="v_0.0" x="21.677678" y="-4.800000" angle="90.00" type="DEFAULT_VEHTYPE" speed="6.20" pos="21.68" lane="E0_1" slope="0.00" signals="10" acceleration="-1.17" distance="21.68"/>
        <vehicle id="v_1.0" x="38.077564" y="-4.800000" angle="90.00" type="t_0" speed="4.06" pos="38.08" lane="E0_1" slope="0.00" signals="0" acceleration="0.67" distance="38.08"/>
        <vehicle id="v_2.0" x="11.461198" y="-1.600000" angle="90.00" type="DEFAULT_VEHTYPE" speed="6.93" pos="11.46" lane="E0_2" slope="0.00" signals="0" acceleration="2.28" distance="11.46"/>
    </timestep>
    <timestep time="3.30">
        <vehicle id="f_0.0" x="101.600000" y="-82.915331" angle="0.00" type="DEFAULT_VEHTYPE" speed="6.91" pos="17.08" lane="-E3_2" slope="0.00" signals="0" acceleration="2.42" distance="17.08"/>
        <vehicle id="v_0.0" x="22.287352" y="-4.800000" angle="90.00" type="DEFAULT_VEHTYPE" speed="6.10" pos="22.29" lane="E0_1" slope="0.00" signals="10" acceleration="-1.02" distance="22.29"/>
        <vehicle id="v_1.0" x="38.484797" y="-4.800000" angle="90.00" type="t_0" speed="4.07" pos="38.48" lane="E0_1" slope="0.00" signals="0" acceleration="0.17" distance="38.48"/>
        <vehicle id="v_2.0" x="12.176479" y="-1.600000" angle="90.00" type="DEFAULT_VEHTYPE" speed="7.15" pos="12.18" lane="E0_2" slope="0.00" signals="0" acceleration="2.21" distance="12.18"/>
    </timestep>
    <timestep time="3.40">
        <vehicle id="f_0.0" x="101.600000" y="-82.207371" angle="0.00" type="DEFAULT_VEHTYPE" speed="7.08" pos="17.79" lane="-E3_2" slope="0.00" signals="0" acceleration="1.72" distance="17.79"/>
        <vehicle id="v_0.0" x="22.893042" y="-4.800000" angle="90.00" type="DEFAULT_VEHTYPE" speed="6.06" pos="22.89" lane="E0_1" slope="0.00" signals="2" acceleration="-0.40" distance="22.89"/>