<?xml version="1.0" encoding="UTF-8"?>

<!-- generated on 2023-12-14 01:21:05 by Eclipse SUMO GUI Version 1.18.0
<configuration xmlns:xsi="http://www.w3.org/2001/XMLSchema-instance" xsi:noNamespaceSchemaLocation="http://sumo.dlr.de/xsd/sumoConfiguration.xsd">

    <input>
        <net-file value="C:\Users\vinay\Desktop\ECE_699\sumo_road\INTERSECTION_FINAL\lanelet_sim\SIM_EGO_DEF\2023-12-12-14-43-21\osm.net.xml.gz"/>
        <route-files value="C:\Users\vinay\Desktop\ECE_699\sumo_road\INTERSECTION_FINAL\lanelet_sim\SIM_EGO_DEF\2023-12-12-14-43-21\osm.passenger.rou.xml"/>
        <additional-files value="C:\Users\vinay\Desktop\ECE_699\sumo_road\INTERSECTION_FINAL\lanelet_sim\SIM_EGO_DEF\2023-12-12-14-43-21\osm.poly.xml.gz"/>
    </input>

    <output>
        <emission-output value="C:\Users\vinay\Desktop\ECE_699\sumo_road\INTERSECTION_FINAL\lanelet_sim\SIM_EGO_DEF\2023-12-12-14-43-21\output/em_op.xml"/>
        <fcd-output value="C:\Users\vinay\Desktop\ECE_699\sumo_road\INTERSECTION_FINAL\lanelet_sim\SIM_EGO_DEF\2023-12-12-14-43-21\output/fcd_op.xml"/>
        <fcd-output.signals value="true"/>
        <fcd-output.distance value="true"/>
        <fcd-output.acceleration value="true"/>
        <full-output value="C:\Users\vinay\Desktop\ECE_699\sumo_road\INTERSECTION_FINAL\lanelet_sim\SIM_EGO_DEF\2023-12-12-14-43-21\output/full_op.xml"/>
        <summary-output value="C:\Users\vinay\Desktop\ECE_699\sumo_road\INTERSECTION_FINAL\lanelet_sim\SIM_EGO_DEF\2023-12-12-14-43-21\output/sum_op.xml"/>
        <lanechange-output value="C:\Users\vinay\Desktop\ECE_699\sumo_road\INTERSECTION_FINAL\lanelet_sim\SIM_EGO_DEF\2023-12-12-14-43-21\output/lane_change_op.xml"/>
        <lanechange-output.started value="true"/>
        <lanechange-output.ended value="true"/>
        <lanechange-output.xy value="true"/>
        <collision-output value="C:\Users\vinay\Desktop\ECE_699\sumo_road\INTERSECTION_FINAL\lanelet_sim\SIM_EGO_DEF\2023-12-12-14-43-21\output/collisions.xml"/>
        <statistic-output value="C:\Users\vinay\Desktop\ECE_699\sumo_road\INTERSECTION_FINAL\lanelet_sim\SIM_EGO_DEF\2023-12-12-14-43-21\output/stats.xml"/>
    </output>

    <time>
        <step-length value="0.1"/>
    </time>

    <processing>
        <ignore-route-errors value="true"/>
        <collision.action value="remove"/>
        <collision.stoptime value="2.00"/>
        <collision.check-junctions value="true"/>
    </processing>

    <random_number>
        <random value="true"/>
    </random_number>

    <gui_only>
        <gui-settings-file value="C:\Users\vinay\Desktop\ECE_699\sumo_road\INTERSECTION_FINAL\lanelet_sim\SIM_EGO_DEF\2023-12-12-14-43-21\osm.view.xml"/>
    </gui_only>

</configuration>
-->

<fcd-export xmlns:xsi="http://www.w3.org/2001/XMLSchema-instance" xsi:noNamespaceSchemaLocation="http://sumo.dlr.de/xsd/fcd_file.xsd">
    <timestep time="0.00">
        <vehicle id="non_ego_flow.0" x="145.46" y="2.08" angle="29.49" type="non-ego" speed="0.00" pos="5.10" lane="-41183908#2_0" slope="0.00" signals="0" acceleration="0.00" distance="5.10"/>
    </timestep>
    <timestep time="0.10">
        <vehicle id="non_ego_flow.0" x="145.46" y="2.08" angle="29.49" type="non-ego" speed="0.01" pos="5.10" lane="-41183908#2_0" slope="0.00" signals="8" acceleration="0.15" distance="5.10"/>
    </timestep>
    <timestep time="0.20">
        <vehicle id="non_ego_flow.0" x="145.46" y="2.08" angle="29.49" type="non-ego" speed="0.04" pos="5.11" lane="-41183908#2_0" slope="0.00" signals="8" acceleration="0.28" distance="5.11"/>
    </timestep>
    <timestep time="0.30">
        <vehicle id="non_ego_flow.0" x="145.47" y="2.09" angle="29.49" type="non-ego" speed="0.09" pos="5.11" lane="-41183908#2_0" slope="0.00" signals="8" acceleration="0.49" distance="5.11"/>
    </timestep>
    <timestep time="0.40">
        <vehicle id="non_ego_flow.0" x="145.48" y="2.11" angle="29.49" type="non-ego" speed="0.17" pos="5.13" lane="-41183908#2_0" slope="0.00" signals="0" acceleration="0.81" distance="5.13"/>
    </timestep>
    <timestep time="0.50">
        <vehicle id="non_ego_flow.0" x="145.49" y="2.13" angle="29.49" type="non-ego" speed="0.29" pos="5.16" lane="-41183908#2_0" slope="0.00" signals="0" acceleration="1.21" distance="5.16"/>
    </timestep>
    <timestep time="0.60">
        <vehicle id="non_ego_flow.0" x="145.51" y="2.17" angle="29.49" type="non-ego" speed="0.46" pos="5.21" lane="-41183908#2_0" slope="0.00" signals="0" acceleration="1.64" distance="5.21"/>
    </timestep>
    <timestep time="0.70">
        <vehicle id="non_ego_flow.0" x="145.55" y="2.23" angle="29.49" type="non-ego" speed="0.66" pos="5.27" lane="-41183908#2_0" slope="0.00" signals="0" acceleration="2.00" distance="5.27"/>
    </timestep>
    <timestep time="0.80">
        <vehicle id="non_ego_flow.0" x="145.59" y="2.31" angle="29.49" type="non-ego" speed="0.88" pos="5.36" lane="-41183908#2_0" slope="0.00" signals="0" acceleration="2.25" distance="5.36"/>
    </timestep>
    <timestep time="0.90">
        <vehicle id="non_ego_flow.0" x="145.64" y="2.40" angle="29.49" type="non-ego" speed="1.12" pos="5.47" lane="-41183908#2_0" slope="0.00" signals="0" acceleration="2.41" distance="5.47"/>
    </timestep>
    <timestep time="1.00">
        <vehicle id="ego_vehicle" x="335.01" y="249.86" angle="233.36" type="ego" speed="0.00" pos="5.10" lane="41183912#0_0" slope="0.00" signals="0" acceleration="0.00" distance="5.10"/>
        <vehicle id="non_ego_flow.0" x="145.71" y="2.52" angle="29.49" type="non-ego" speed="1.37" pos="5.61" lane="-41183908#2_0" slope="0.00" signals="0" acceleration="2.50" distance="5.61"/>
    </timestep>
    <timestep time="1.10">
        <vehicle id="ego_vehicle" x="335.00" y="249.86" angle="233.36" type="ego" speed="0.03" pos="5.10" lane="41183912#0_0" slope="0.00" signals="8" acceleration="0.34" distance="5.10"/>
        <vehicle id="non_ego_flow.0" x="145.79" y="2.67" angle="29.49" type="non-ego" speed="1.63" pos="5.77" lane="-41183908#2_0" slope="0.00" signals="0" acceleration="2.54" distance="5.77"/>
    </timestep>
    <timestep time="1.20">
        <vehicle id="ego_vehicle" x="334.99" y="249.86" angle="233.36" type="ego" speed="0.10" pos="5.11" lane="41183912#0_0" slope="0.00" signals="8" acceleration="0.64" distance="5.11"/>
        <vehicle id="non_ego_flow.0" x="145.88" y="2.83" angle="29.49" type="non-ego" speed="1.88" pos="5.96" lane="-41183908#2_0" slope="0.00" signals="0" acceleration="2.57" distance="5.96"/>
    </timestep>
    <timestep time="1.30">
        <vehicle id="ego_vehicle" x="334.98" y="249.84" angle="233.36" type="ego" speed="0.21" pos="5.13" lane="41183912#0_0" slope="0.00" signals="0" acceleration="1.12" distance="5.13"/>
        <vehicle id="non_ego_flow.0" x="145.99" y="3.02" angle="29.49" type="non-ego" speed="2.14" pos="6.18" lane="-41183908#2_0" slope="0.00" signals="0" acceleration="2.58" distance="6.18"/>
    </timestep>
    <timestep time="1.40">
        <vehicle id="ego_vehicle" x="334.95" y="249.82" angle="233.36" type="ego" speed="0.40" pos="5.17" lane="41183912#0_0" slope="0.00" signals="0" acceleration="1.86" distance="5.17"/>
        <vehicle id="non_ego_flow.0" x="146.11" y="3.22" angle="29.49" type="non-ego" speed="2.40" pos="6.42" lane="-41183908#2_0" slope="0.00" signals="0" acceleration="2.59" distance="6.42"/>
    </timestep>
    <timestep time="1.50">
        <vehicle id="ego_vehicle" x="334.89" y="249.78" angle="233.36" type="ego" speed="0.68" pos="5.24" lane="41183912#0_0" slope="0.00" signals="0" acceleration="2.80" distance="5.24"/>
        <vehicle id="non_ego_flow.0" x="146.24" y="3.46" angle="29.49" type="non-ego" speed="2.66" pos="6.68" lane="-41183908#2_0" slope="0.00" signals="0" acceleration="2.59" distance="6.68"/>
    </timestep>
    <timestep time="1.60">
        <vehicle id="ego_vehicle" x="334.81" y="249.72" angle="233.36" type="ego" speed="1.05" pos="5.35" lane="41183912#0_0" slope="0.00" signals="0" acceleration="3.78" distance="5.35"/>
        <vehicle id="non_ego_flow.0" x="146.38" y="3.71" angle="29.49" type="non-ego" speed="2.92" pos="6.97" lane="-41183908#2_0" slope="0.00" signals="0" acceleration="2.59" distance="6.97"/>
    </timestep>
    <timestep time="1.70">
        <vehicle id="ego_vehicle" x="334.69" y="249.63" angle="233.36" type="ego" speed="1.52" pos="5.50" lane="41183912#0_0" slope="0.00" signals="0" acceleration="4.61" distance="5.50"/>
        <vehicle id="non_ego_flow.0" x="146.54" y="3.99" angle="29.49" type="non-ego" speed="3.18" pos="7.29" lane="-41183908#2_0" slope="0.00" signals="0" acceleration="2.58" distance="7.29"/>
    </timestep>
    <timestep time="1.80">
        <vehicle id="ego_vehicle" x="334.52" y="249.51" angle="233.36" type="ego" speed="2.04" pos="5.70" lane="41183912#0_0" slope="0.00" signals="0" acceleration="5.20" distance="5.70"/>
        <vehicle id="non_ego_flow.0" x="146.71" y="4.29" angle="29.49" type="non-ego" speed="3.43" pos="7.63" lane="-41183908#2_0" slope="0.00" signals="0" acceleration="2.57" distance="7.63"/>
    </timestep>
    <timestep time="1.90">
        <vehicle id="ego_vehicle" x="334.31" y="249.35" angle="233.36" type="ego" speed="2.59" pos="5.96" lane="41183912#0_0" slope="0.00" signals="0" acceleration="5.56" distance="5.96"/>
        <vehicle id="non_ego_flow.0" x="146.89" y="4.61" angle="29.49" type="non-ego" speed="3.70" pos="8.00" lane="-41183908#2_0" slope="0.00" signals="0" acceleration="2.64" distance="8.00"/>
    </timestep>
    <timestep time="2.00">
        <vehicle id="ego_vehicle" x="334.06" y="249.16" angle="233.36" type="ego" speed="3.17" pos="6.28" lane="41183912#0_0" slope="0.00" signals="0" acceleration="5.76" distance="6.28"/>
        <vehicle id="non_ego_flow.0" x="147.09" y="4.95" angle="29.49" type="non-ego" speed="3.96" pos="8.40" lane="-41183908#2_0" slope="0.00" signals="0" acceleration="2.61" distance="8.40"/>
        <vehicle id="non_ego_flow.1" x="352.17" y="91.54" angle="302.45" type="non-ego" speed="0.00" pos="5.10" lane="1024002010_0" slope="0.00" signals="0" acceleration="0.00" distance="5.10"/>
    </timestep>
    <timestep time="2.10">
        <vehicle id="ego_vehicle" x="333.76" y="248.94" angle="233.36" type="ego" speed="3.73" pos="6.65" lane="41183912#0_0" slope="0.00" signals="0" acceleration="5.67" distance="6.65"/>
        <vehicle id="non_ego_flow.0" x="147.29" y="5.32" angle="29.49" type="non-ego" speed="4.24" pos="8.82" lane="-41183908#2_0" slope="0.00" signals="0" acceleration="2.81" distance="8.82"/>
        <vehicle id="non_ego_flow.1" x="352.17" y="91.54" angle="302.45" type="non-ego" speed="0.01" pos="5.10" lane="1024002010_0" slope="0.00" signals="8" acceleration="0.15" distance="5.10"/>
    </timestep>
    <timestep time="2.20">
        <vehicle id="ego_vehicle" x="335.33" y="246.11" angle="233.36" type="ego" speed="4.25" pos="7.08" lane="41183912#0_1" slope="0.00" signals="0" acceleration="5.15" distance="7.08"/>
        <vehicle id="non_ego_flow.0" x="147.52" y="5.71" angle="29.49" type="non-ego" speed="4.51" pos="9.28" lane="-41183908#2_0" slope="0.00" signals="0" acceleration="2.68" distance="9.28"/>
        <vehicle id="non_ego_flow.1" x="352.16" y="91.54" angle="302.45" type="non-ego" speed="0.04" pos="5.11" lane="1024002010_0" slope="0.00" signals="8" acceleration="0.28" distance="5.11"/>
    </timestep>
    <timestep time="2.30">
        <vehicle id="ego_vehicle" x="334.95" y="245.83" angle="233.36" type="ego" speed="4.71" pos="7.55" lane="41183912#0_1" slope="0.00" signals="0" acceleration="4.64" distance="7.55"/>
        <vehicle id="non_ego_flow.0" x="147.75" y="6.13" angle="29.49" type="non-ego" speed="4.78" pos="9.75" lane="-41183908#2_0" slope="0.00" signals="0" acceleration="2.71" distance="9.75"/>
        <vehicle id="non_ego_flow.1" x="352.15" y="91.54" angle="302.45" type="non-ego" speed="0.09" pos="5.11" lane="1024002010_0" slope="0.00" signals="8" acceleration="0.49" distance="5.11"/>
    </timestep>
    <timestep time="2.40">
        <vehicle id="ego_vehicle" x="334.53" y="245.52" angle="233.36" type="ego" speed="5.20" pos="8.07" lane="41183912#0_1" slope="0.00" signals="0" acceleration="4.88" distance="8.07"/>
        <vehicle id="non_ego_flow.0" x="148.00" y="6.57" angle="29.49" type="non-ego" speed="5.05" pos="10.26" lane="-41183908#2_0" slope="0.00" signals="0" acceleration="2.72" distance="10.26"/>
        <vehicle id="non_ego_flow.1" x="352.14" y="91.55" angle="302.45" type="non-ego" speed="0.17" pos="5.13" lane="1024002010_0" slope="0.00" signals="0" acceleration="0.81" distance="5.13"/>
    </timestep>
    <timestep time="2.50">
        <vehicle id="ego_vehicle" x="334.08" y="245.19" angle="233.36" type="ego" speed="5.58" pos="8.63" lane="41183912#0_1" slope="0.00" signals="0" acceleration="3.78" distance="8.63"/>
        <vehicle id="non_ego_flow.0" x="148.26" y="7.03" angle="29.49" type="non-ego" speed="5.32" pos="10.79" lane="-41183908#2_0" slope="0.00" signals="0" acceleration="2.71" distance="10.79"/>
        <vehicle id="non_ego_flow.1" x="352.11" y="91.57" angle="302.45" type="non-ego" speed="0.29" pos="5.16" lane="1024002010_0" slope="0.00" signals="0" acceleration="1.21" distance="5.16"/>
    </timestep>
    <timestep time="2.60">
        <vehicle id="ego_vehicle" x="333.60" y="244.83" angle="233.36" type="ego" speed="5.97" pos="9.22" lane="41183912#0_1" slope="0.00" signals="0" acceleration="3.91" distance="9.22"/>
        <vehicle id="non_ego_flow.0" x="148.54" y="7.52" angle="29.49" type="non-ego" speed="5.57" pos="11.35" lane="-41183908#2_0" slope="0.00" signals="0" acceleration="2.46" distance="11.35"/>
        <vehicle id="non_ego_flow.1" x="352.08" y="91.59" angle="302.45" type="non-ego" speed="0.46" pos="5.21" lane="1024002010_0" slope="0.00" signals="0" acceleration="1.64" distance="5.21"/>
    </timestep>
    <timestep time="2.70">
        <vehicle id="ego_vehicle" x="333.10" y="244.45" angle="233.36" type="ego" speed="6.33" pos="9.86" lane="41183912#0_1" slope="0.00" signals="0" acceleration="3.60" distance="9.86"/>
        <vehicle id="non_ego_flow.0" x="148.82" y="8.02" angle="29.49" type="non-ego" speed="5.81" pos="11.93" lane="-41183908#2_0" slope="0.00" signals="0" acceleration="2.38" distance="11.93"/>
        <vehicle id="non_ego_flow.1" x="352.02" y="91.63" angle="302.45" type="non-ego" speed="0.66" pos="5.27" lane="1024002010_0" slope="0.00" signals="0" acceleration="2.00" distance="5.27"/>
    </timestep>
    <timestep time="2.80">
        <vehicle id="ego_vehicle" x="332.56" y="244.06" angle="233.36" type="ego" speed="6.66" pos="10.52" lane="41183912#0_1" slope="0.00" signals="0" acceleration="3.27" distance="10.52"/>
        <vehicle id="non_ego_flow.0" x="149.12" y="8.55" angle="29.49" type="non-ego" speed="6.02" pos="12.53" lane="-41183908#2_0" slope="0.00" signals="0" acceleration="2.15" distance="12.53"/>
        <vehicle id="non_ego_flow.1" x="351.95" y="91.68" angle="302.45" type="non-ego" speed="0.88" pos="5.36" lane="1024002010_0" slope="0.00" signals="0" acceleration="2.25" distance="5.36"/>
    </timestep>
    <timestep time="2.90">
        <vehicle id="ego_vehicle" x="332.01" y="243.65" angle="233.36" type="ego" speed="6.83" pos="11.20" lane="41183912#0_1" slope="0.00" signals="0" acceleration="1.67" distance="11.20"/>
        <vehicle id="non_ego_flow.0" x="149.43" y="9.09" angle="29.49" type="non-ego" speed="6.25" pos="13.16" lane="-41183908#2_0" slope="0.00" signals="0" acceleration="2.27" distance="13.16"/>
        <vehicle id="non_ego_flow.1" x="351.85" y="91.74" angle="302.45" type="non-ego" speed="1.12" pos="5.47" lane="1024002010_0" slope="0.00" signals="0" acceleration="2.41" distance="5.47"/>
    </timestep>
    <timestep time="3.00">
        <vehicle id="ego_vehicle" x="331.46" y="243.24" angle="233.36" type="ego" speed="6.85" pos="11.89" lane="41183912#0_1" slope="0.00" signals="0" acceleration="0.28" distance="11.89"/>
        <vehicle id="non_ego_flow.0" x="149.74" y="9.65" angle="29.49" type="non-ego" speed="6.45" pos="13.80" lane="-41183908#2_0" slope="0.00" signals="0" acceleration="2.05" distance="13.80"/>
        <vehicle id="non_ego_flow.1" x="351.74" y="91.81" angle="302.45" type="non-ego" speed="1.37" pos="5.61" lane="1024002010_0" slope="0.00" signals="0" acceleration="2.50" distance="5.61"/>
    </timestep>
    <timestep time="3.10">
        <vehicle id="ego_vehicle" x="330.91" y="242.83" angle="233.36" type="ego" speed="6.85" pos="12.58" lane="41183912#0_1" slope="0.00" signals="0" acceleration="-0.02" distance="12.58"/>
        <vehicle id="non_ego_flow.0" x="150.07" y="10.23" angle="29.49" type="non-ego" speed="6.66" pos="14.47" lane="-41183908#2_0" slope="0.00" signals="0" acceleration="2.04" distance="14.47"/>
        <vehicle id="non_ego_flow.1" x="351.60" y="91.90" angle="302.45" type="non-ego" speed="1.63" pos="5.77" lane="1024002010_0" slope="0.00" signals="0" acceleration="2.54" distance="5.77"/>
    </timestep>
    <timestep time="3.20">
        <vehicle id="ego_vehicle" x="330.37" y="242.42" angle="233.36" type="ego" speed="6.82" pos="13.26" lane="41183912#0_1" slope="0.00" signals="0" acceleration="-0.32" distance="13.26"/>
        <vehicle id="non_ego_flow.0" x="150.41" y="10.83" angle="29.49" type="non-ego" speed="6.85" pos="15.15" lane="-41183908#2_0" slope="0.00" signals="0" acceleration="1.96" distance="15.15"/>
        <vehicle id="non_ego_flow.1" x="351.44" y="92.00" angle="302.45" type="non-ego" speed="1.88" pos="5.96" lane="1024002010_0" slope="0.00" signals="0" acceleration="2.57" distance="5.96"/>
    </timestep>
    <timestep time="3.30">
        <vehicle id="ego_vehicle" x="329.82" y="242.02" angle="233.36" type="ego" speed="6.85" pos="0.14" lane=":1534177721_1_1" slope="0.00" signals="0" acceleration="0.28" distance="13.94"/>
        <vehicle id="non_ego_flow.0" x="150.76" y="11.44" angle="29.50" type="non-ego" speed="7.03" pos="15.86" lane="-41183908#2_0" slope="0.00" signals="0" acceleration="1.74" distance="15.86"/>
        <vehicle id="non_ego_flow.1" x="349.55" y="89.41" angle="302.44" type="non-ego" speed="2.14" pos="6.18" lane="1024002010_1" slope="0.00" signals="0" acceleration="2.58" distance="6.18"/>
    </timestep>
    <timestep time="3.40">
        <vehicle id="ego_vehicle" x="329.27" y="241.61" angle="233.32" type="ego" speed="6.84" pos="0.83" lane=":1534177721_1_1" slope="0.00" signals="0" acceleration="-0.02" distance="14.63"/>
        <vehicle id="non_ego_flow.0" x="151.11" y="12.07" angle="29.50" type="non-ego" speed="7.18" pos="16.57" lane="-41183908#2_0" slope="0.00" signals="0" acceleration="1.56" distance="16.57"/>
        <vehicle id="non_ego_flow.1" x="349.35" y="89.54" angle="302.44" type="non-ego" speed="2.40" pos="6.42" lane="1024002010_1" slope="0.00" signals="0" acceleration="2.59" distance="6.42"/>
    </timestep>
    <timestep time="3.50">
        <vehicle id="ego_vehicle" x="328.73" y="241.20" angle="233.29" type="ego" speed="6.81" pos="1.51" lane=":1534177721_1_1" slope="0.00" signals="0" acceleration="-0.32" distance="15.31"/>
        <vehicle id="non_ego_flow.0" x="151.47" y="12.71" angle="29.50" type="non-ego" speed="7.34" pos="17.31" lane="-41183908#2_0" slope="0.00" signals="0" acceleration="1.61" distance="17.31"/>
        <vehicle id="non_ego_flow.1" x="349.12" y="89.68" angle="302.44" type="non-ego" speed="2.66" pos="6.68" lane="1024002010_1" slope="0.00" signals="0" acceleration="2.59" distance="6.68"/>
    </timestep>
    <timestep time="3.60">
        <vehicle id="ego_vehicle" x="328.19" y="240.79" angle="233.25" type="ego" speed="6.75" pos="2.18" lane=":1534177721_1_1" slope="0.00" signals="8" acceleration="-0.62" distance="15.98"/>
        <vehicle id="non_ego_flow.0" x="151.84" y="13.36" angle="29.50" type="non-ego" speed="7.49" pos="18.06" lane="-41183908#2_0" slope="0.00" signals="0" acceleration="1.49" distance="18.06"/>
        <vehicle id="non_ego_flow.1" x="348.87" y="89.84" angle="302.44" type="non-ego" speed="2.92" pos="6.97" lane="1024002010_1" slope="0.00" signals="0" acceleration="2.59" distance="6.97"/>
    </timestep>
    <timestep time="3.70">
        <vehicle id="ego_vehicle" x="327.66" y="240.39" angle="233.22" type="ego" speed="6.66" pos="2.85" lane=":1534177721_1_1" slope="0.00" signals="8" acceleration="-0.92" distance="16.65"/>
        <vehicle id="non_ego_flow.0" x="152.22" y="14.02" angle="29.50" type="non-ego" speed="7.65" pos="18.82" lane="-41183908#2_0" slope="0.00" signals="0" acceleration="1.60" distance="18.82"/>
        <vehicle id="non_ego_flow.1" x="348.61" y="90.01" angle="302.44" type="non-ego" speed="3.18" pos="7.29" lane="1024002010_1" slope="0.00" signals="0" acceleration="2.59" distance="7.29"/>
    </timestep>
    <timestep time="3.80">
        <vehicle id="ego_vehicle" x="327.14" y="240.00" angle="233.19" type="ego" speed="6.54" pos="3.50" lane=":1534177721_1_1" slope="0.00" signals="8" acceleration="-1.22" distance="17.30"/>
        <vehicle id="non_ego_flow.0" x="152.60" y="14.70" angle="29.51" type="non-ego" speed="7.79" pos="19.60" lane="-41183908#2_0" slope="0.00" signals="0" acceleration="1.38" distance="19.60"/>
        <vehicle id="non_ego_flow.1" x="348.32" y="90.20" angle="302.44" type="non-ego" speed="3.43" pos="7.63" lane="1024002010_1" slope="0.00" signals="0" acceleration="2.52" distance="7.63"/>
    </timestep>
    <timestep time="3.90">
        <vehicle id="ego_vehicle" x="326.62" y="239.62" angle="233.15" type="ego" speed="6.47" pos="4.15" lane=":1534177721_1_1" slope="0.00" signals="8" acceleration="-0.62" distance="17.95"/>
        <vehicle id="non_ego_flow.0" x="152.99" y="15.39" angle="29.51" type="non-ego" speed="7.93" pos="20.40" lane="-41183908#2_0" slope="0.00" signals="0" acceleration="1.43" distance="20.40"/>
        <vehicle id="non_ego_flow.1" x="348.01" y="90.39" angle="302.44" type="non-ego" speed="3.66" pos="8.00" lane="1024002010_1" slope="0.00" signals="0" acceleration="2.34" distance="8.00"/>
    </timestep>
    <timestep time="4.00">
        <vehicle id="ego_vehicle" x="326.10" y="239.23" angle="233.12" type="ego" speed="6.47" pos="4.80" lane=":1534177721_1_1" slope="0.00" signals="0" acceleration="-0.02" distance="18.60"/>
        <vehicle id="non_ego_flow.0" x="153.39" y="16.10" angle="29.51" type="non-ego" speed="8.08" pos="21.20" lane="-41183908#2_0" slope="0.00" signals="0" acceleration="1.42" distance="21.20"/>
        <vehicle id="non_ego_flow.1" x="347.68" y="90.60" angle="302.44" type="non-ego" speed="3.88" pos="8.39" lane="1024002010_1" slope="0.00" signals="0" acceleration="2.21" distance="8.39"/>
        <vehicle id="non_ego_flow.2" x="335.01" y="249.86" angle="233.36" type="non-ego" speed="0.00" pos="5.10" lane="41183912#0_0" slope="0.00" signals="0" acceleration="0.00" distance="5.10"/>
    </timestep>
    <timestep time="4.10">
        <vehicle id="ego_vehicle" x="325.59" y="238.84" angle="233.11" type="ego" speed="6.50" pos="5.45" lane=":1534177721_1_1" slope="0.00" signals="0" acceleration="0.28" distance="19.25"/>
        <vehicle id="non_ego_flow.0" x="153.80" y="16.81" angle="29.51" type="non-ego" speed="8.23" pos="22.03" lane="-41183908#2_0" slope="0.00" signals="0" acceleration="1.57" distance="22.03"/>
        <vehicle id="non_ego_flow.1" x="347.33" y="90.82" angle="302.44" type="non-ego" speed="4.11" pos="8.80" lane="1024002010_1" slope="0.00" signals="0" acceleration="2.30" distance="8.80"/>
        <vehicle id="non_ego_flow.2" x="336.91" y="247.29" angle="233.36" type="non-ego" speed="0.01" pos="5.10" lane="41183912#0_1" slope="0.00" signals="8" acceleration="0.15" distance="5.10"/>
    </timestep>
    <timestep time="4.20">
        <vehicle id="ego_vehicle" x="325.06" y="238.45" angle="233.11" type="ego" speed="6.56" pos="6.10" lane=":1534177721_1_1" slope="0.00" signals="0" acceleration="0.58" distance="19.90"/>
        <vehicle id="non_ego_flow.0" x="154.21" y="17.54" angle="29.51" type="non-ego" speed="8.38" pos="22.86" lane="-41183908#2_0" slope="0.00" signals="0" acceleration="1.48" distance="22.86"/>
        <vehicle id="non_ego_flow.1" x="346.96" y="91.05" angle="302.44" type="non-ego" speed="4.36" pos="9.24" lane="1024002010_1" slope="0.00" signals="0" acceleration="2.46" distance="9.24"/>
        <vehicle id="non_ego_flow.2" x="336.91" y="247.29" angle="233.36" type="non-ego" speed="0.04" pos="5.11" lane="41183912#0_1" slope="0.00" signals="8" acceleration="0.28" distance="5.11"/>
    </timestep>
    <timestep time="4.30">
        <vehicle id="ego_vehicle" x="324.54" y="238.05" angle="233.09" type="ego" speed="6.59" pos="0.58" lane="41183912#1_1" slope="0.00" signals="0" acceleration="0.30" distance="0.58"/>
        <vehicle id="non_ego_flow.0" x="154.63" y="18.28" angle="29.51" type="non-ego" speed="8.54" pos="23.72" lane="-41183908#2_0" slope="0.00" signals="0" acceleration="1.58" distance="23.72"/>
        <vehicle id="non_ego_flow.1" x="344.86" y="88.60" angle="302.45" type="non-ego" speed="4.61" pos="9.70" lane="1024002010_2" slope="0.00" signals="0" acceleration="2.53" distance="9.70"/>
        <vehicle id="non_ego_flow.2" x="336.90" y="247.29" angle="233.36" type="non-ego" speed="0.09" pos="5.11" lane="41183912#0_1" slope="0.00" signals="8" acceleration="0.49" distance="5.11"/>
    </timestep>
    <timestep time="4.40">
        <vehicle id="ego_vehicle" x="324.01" y="237.65" angle="233.06" type="ego" speed="6.65" pos="1.24" lane="41183912#1_1" slope="0.00" signals="0" acceleration="0.60" distance="1.24"/>
        <vehicle id="non_ego_flow.0" x="155.06" y="19.04" angle="29.51" type="non-ego" speed="8.71" pos="24.59" lane="-41183908#2_0" slope="0.00" signals="0" acceleration="1.69" distance="24.59"/>
        <vehicle id="non_ego_flow.1" x="344.45" y="88.86" angle="302.45" type="non-ego" speed="4.84" pos="10.18" lane="1024002010_2" slope="0.00" signals="0" acceleration="2.26" distance="10.18"/>
        <vehicle id="non_ego_flow.2" x="336.89" y="247.28" angle="233.36" type="non-ego" speed="0.17" pos="5.13" lane="41183912#0_1" slope="0.00" signals="0" acceleration="0.81" distance="5.13"/>
    </timestep>
    <timestep time="4.50">
        <vehicle id="ego_vehicle" x="323.47" y="237.25" angle="233.03" type="ego" speed="6.67" pos="1.91" lane="41183912#1_1" slope="0.00" signals="0" acceleration="0.30" distance="1.91"/>
        <vehicle id="non_ego_flow.0" x="155.50" y="19.82" angle="29.51" type="non-ego" speed="8.89" pos="25.48" lane="-41183908#2_0" slope="0.00" signals="0" acceleration="1.87" distance="25.48"/>
        <vehicle id="non_ego_flow.1" x="344.02" y="89.14" angle="302.45" type="non-ego" speed="5.09" pos="10.69" lane="1024002010_2" slope="0.00" signals="0" acceleration="2.53" distance="10.69"/>
        <vehicle id="non_ego_flow.2" x="336.87" y="247.26" angle="233.36" type="non-ego" speed="0.29" pos="5.16" lane="41183912#0_1" slope="0.00" signals="0" acceleration="1.21" distance="5.16"/>
    </timestep>
    <timestep time="4.60">
        <vehicle id="ego_vehicle" x="322.94" y="236.84" angle="233.00" type="ego" speed="6.73" pos="2.59" lane="41183912#1_1" slope="0.00" signals="0" acceleration="0.60" distance="2.59"/>
        <vehicle id="non_ego_flow.0" x="155.94" y="20.61" angle="29.51" type="non-ego" speed="9.10" pos="26.39" lane="-41183908#2_0" slope="0.00" signals="0" acceleration="2.03" distance="26.39"/>
        <vehicle id="non_ego_flow.1" x="343.57" y="89.42" angle="302.45" type="non-ego" speed="5.34" pos="11.22" lane="1024002010_2" slope="0.00" signals="0" acceleration="2.50" distance="11.22"/>
        <vehicle id="non_ego_flow.2" x="336.83" y="247.23" angle="233.36" type="non-ego" speed="0.45" pos="5.21" lane="41183912#0_1" slope="0.00" signals="0" acceleration="1.55" distance="5.21"/>
    </timestep>
    <timestep time="4.70">
        <vehicle id="ego_vehicle" x="322.39" y="236.43" angle="232.97" type="ego" speed="6.82" pos="3.27" lane="41183912#1_1" slope="0.00" signals="0" acceleration="0.90" distance="3.27"/>
        <vehicle id="non_ego_flow.0" x="156.40" y="21.42" angle="29.51" type="non-ego" speed="9.29" pos="27.32" lane="-41183908#2_0" slope="0.00" signals="0" acceleration="1.89" distance="27.32"/>
        <vehicle id="non_ego_flow.1" x="343.10" y="89.72" angle="302.45" type="non-ego" speed="5.59" pos="11.78" lane="1024002010_2" slope="0.00" signals="0" acceleration="2.47" distance="11.78"/>
        <vehicle id="non_ego_flow.2" x="336.78" y="247.19" angle="233.36" type="non-ego" speed="0.64" pos="5.27" lane="41183912#0_1" slope="0.00" signals="0" acceleration="1.89" distance="5.27"/>
    </timestep>
    <timestep time="4.80">
        <vehicle id="ego_vehicle" x="321.84" y="236.01" angle="232.94" type="ego" speed="6.88" pos="3.96" lane="41183912#1_1" slope="0.00" signals="0" acceleration="0.59" distance="3.96"/>
        <vehicle id="non_ego_flow.0" x="156.87" y="22.24" angle="29.51" type="non-ego" speed="9.47" pos="28.26" lane="-41183908#2_0" slope="0.00" signals="0" acceleration="1.79" distance="28.26"/>
        <vehicle id="non_ego_flow.1" x="342.61" y="90.03" angle="302.45" type="non-ego" speed="5.81" pos="12.36" lane="1024002010_2" slope="0.00" signals="0" acceleration="2.26" distance="12.36"/>
        <vehicle id="non_ego_flow.2" x="336.71" y="247.14" angle="233.36" type="non-ego" speed="0.85" pos="5.35" lane="41183912#0_1" slope="0.00" signals="0" acceleration="2.12" distance="5.35"/>
    </timestep>
    <timestep time="4.90">
        <vehicle id="ego_vehicle" x="321.29" y="235.60" angle="232.91" type="ego" speed="6.93" pos="4.65" lane="41183912#1_1" slope="0.00" signals="0" acceleration="0.44" distance="4.65"/>
        <vehicle id="non_ego_flow.0" x="157.34" y="23.08" angle="29.51" type="non-ego" speed="9.63" pos="29.23" lane="-41183908#2_0" slope="0.00" signals="0" acceleration="1.61" distance="29.23"/>
        <vehicle id="non_ego_flow.1" x="342.10" y="90.36" angle="302.45" type="non-ego" speed="6.05" pos="12.97" lane="1024002010_2" slope="0.00" signals="0" acceleration="2.34" distance="12.97"/>