<?xml version="1.0" encoding="UTF-8"?>

<!-- generated on 2023-10-25 21:48:57 by Eclipse SUMO GUI Version 1.18.0
<configuration xmlns:xsi="http://www.w3.org/2001/XMLSchema-instance" xsi:noNamespaceSchemaLocation="http://sumo.dlr.de/xsd/sumoConfiguration.xsd">

    <input>
        <net-file value="Highway_route.net.xml"/>
        <route-files value="Highway.rou.xml"/>
    </input>

    <output>
        <fcd-output value="fcd-output.xml"/>
        <fcd-output.acceleration value="true"/>
        <amitran-output value="trajectory"/>
        <collision-output value="collision-output"/>
        <statistic-output value="statistic-output"/>
    </output>

    <time>
        <begin value="0"/>
        <end value="500"/>
        <step-length value="1"/>
    </time>

    <processing>
        <collision.action value="remove"/>
        <max-num-vehicles value="50"/>
    </processing>

    <random_number>
        <random value="true"/>
    </random_number>

</configuration>
-->

<fcd-export xmlns:xsi="http://www.w3.org/2001/XMLSchema-instance" xsi:noNamespaceSchemaLocation="http://sumo.dlr.de/xsd/fcd_file.xsd">
    <timestep time="0.00">
        <vehicle id="f_0.0" x="-94.24" y="-4.80" angle="90.00" type="ElderlyDriver" speed="0.00" pos="5.76" lane="E0_0" slope="0.00" acceleration="0.00"/>
        <vehicle id="f_1.0" x="-64.73" y="-49.36" angle="33.37" type="AggressiveDriver" speed="0.00" pos="61.69" lane="E5_0" slope="0.00" acceleration="0.00"/>
        <vehicle id="f_2.0" x="-37.50" y="-1.60" angle="90.00" type="DefensiveDriver" speed="0.00" pos="62.50" lane="E0_1" slope="0.00" acceleration="0.00"/>
        <vehicle id="f_3.0" x="395.23" y="4.80" angle="270.00" type="DeliveryTruck" speed="0.00" pos="4.77" lane="-E2_0" slope="0.00" acceleration="0.00"/>
        <vehicle id="f_4.0" x="259.33" y="46.47" angle="215.86" type="RecklessDriver" speed="0.00" pos="67.20" lane="E7_0" slope="0.00" acceleration="0.00"/>
        <vehicle id="f_5.0" x="398.01" y="1.60" angle="270.00" type="InexperiencedDriver" speed="0.00" pos="1.99" lane="-E2_1" slope="0.00" acceleration="0.00"/>
    </timestep>
    <timestep time="1.00">
        <vehicle id="f_0.0" x="-93.69" y="-4.80" angle="90.00" type="ElderlyDriver" speed="0.55" pos="6.31" lane="E0_0" slope="0.00" acceleration="0.55"/>
        <vehicle id="f_0.1" x="-70.63" y="-4.80" angle="90.00" type="AggressiveLanechangingdriver" speed="0.00" pos="29.37" lane="E0_0" slope="0.00" acceleration="0.00"/>
        <vehicle id="f_1.0" x="-63.47" y="-47.45" angle="33.37" type="AggressiveDriver" speed="2.29" pos="63.97" lane="E5_0" slope="0.00" acceleration="2.29"/>
        <vehicle id="f_1.1" x="-85.55" y="-80.98" angle="33.37" type="AggressiveDriver" speed="0.00" pos="23.83" lane="E5_0" slope="0.00" acceleration="0.00"/>
        <vehicle id="f_2.0" x="-36.81" y="-1.60" angle="90.00" type="DefensiveDriver" speed="0.69" pos="63.19" lane="E0_1" slope="0.00" acceleration="0.69"/>
        <vehicle id="f_3.0" x="394.08" y="4.80" angle="270.00" type="DeliveryTruck" speed="1.14" pos="5.92" lane="-E2_0" slope="0.00" acceleration="1.14"/>
        <vehicle id="f_4.0" x="258.77" y="45.70" angle="215.86" type="RecklessDriver" speed="0.95" pos="68.16" lane="E7_0" slope="0.00" acceleration="0.95"/>
        <vehicle id="f_5.0" x="397.55" y="1.60" angle="270.00" type="InexperiencedDriver" speed="0.46" pos="2.45" lane="-E2_1" slope="0.00" acceleration="0.46"/>
    </timestep>
    <timestep time="2.00">
        <vehicle id="f_0.0" x="-91.98" y="-4.80" angle="90.00" type="ElderlyDriver" speed="1.71" pos="8.02" lane="E0_0" slope="0.00" acceleration="1.16"/>
        <vehicle id="f_0.1" x="-69.72" y="-4.81" angle="90.07" type="AggressiveLanechangingdriver" speed="0.92" pos="30.28" lane="E0_0" slope="0.00" acceleration="0.92"/>
        <vehicle id="f_1.0" x="-59.49" y="-41.41" angle="33.37" type="AggressiveDriver" speed="7.23" pos="71.21" lane="E5_0" slope="0.00" acceleration="4.94"/>
        <vehicle id="f_1.1" x="-84.30" y="-79.08" angle="33.37" type="AggressiveDriver" speed="2.27" pos="26.10" lane="E5_0" slope="0.00" acceleration="2.27"/>
        <vehicle id="f_1.2" x="-71.44" y="-59.55" angle="33.37" type="AggressiveLanechangingdriver" speed="0.00" pos="49.49" lane="E5_0" slope="0.00" acceleration="0.00"/>
        <vehicle id="f_2.0" x="-34.63" y="-1.60" angle="90.00" type="DefensiveDriver" speed="2.18" pos="65.37" lane="E0_1" slope="0.00" acceleration="1.49"/>
        <vehicle id="f_3.0" x="390.45" y="4.80" angle="270.00" type="DeliveryTruck" speed="3.63" pos="9.55" lane="-E2_0" slope="0.00" acceleration="2.49"/>
        <vehicle id="f_3.1" x="315.88" y="1.60" angle="270.00" type="RecklessDriver" speed="0.00" pos="84.12" lane="-E2_1" slope="0.00" acceleration="0.00"/>
        <vehicle id="f_4.0" x="256.18" y="42.11" angle="215.86" type="RecklessDriver" speed="4.43" pos="72.59" lane="E7_0" slope="0.00" acceleration="3.48"/>
        <vehicle id="f_4.1" x="236.46" y="15.39" angle="219.63" type="RecklessDriver" speed="0.00" pos="105.87" lane="E7_0" slope="0.00" acceleration="0.00"/>
        <vehicle id="f_5.0" x="396.10" y="1.60" angle="270.00" type="InexperiencedDriver" speed="1.45" pos="3.90" lane="-E2_1" slope="0.00" acceleration="0.99"/>
        <vehicle id="f_5.1" x="360.81" y="4.80" angle="270.00" type="HumanLikeDriver" speed="0.00" pos="39.19" lane="-E2_0" slope="0.00" acceleration="0.00"/>
    </timestep>
    <timestep time="3.00">
        <vehicle id="f_0.0" x="-89.12" y="-4.80" angle="90.00" type="ElderlyDriver" speed="2.86" pos="10.88" lane="E0_0" slope="0.00" acceleration="1.15"/>
        <vehicle id="f_0.1" x="-66.81" y="-4.80" angle="89.99" type="AggressiveLanechangingdriver" speed="2.91" pos="33.19" lane="E0_0" slope="0.00" acceleration="1.99"/>
        <vehicle id="f_0.2" x="-94.71" y="-1.60" angle="90.00" type="DefensiveDriver" speed="0.00" pos="5.29" lane="E0_1" slope="0.00" acceleration="0.00"/>
        <vehicle id="f_0.3" x="-50.41" y="-4.80" angle="90.00" type="Aggressivejunctiondriver" speed="0.00" pos="49.59" lane="E0_0" slope="0.00" acceleration="0.00"/>
        <vehicle id="f_1.0" x="-53.04" y="-31.60" angle="33.37" type="AggressiveDriver" speed="11.74" pos="82.95" lane="E5_0" slope="0.00" acceleration="4.51"/>
        <vehicle id="f_1.1" x="-80.58" y="-73.43" angle="33.37" type="AggressiveDriver" speed="6.77" pos="32.87" lane="E5_0" slope="0.00" acceleration="4.50"/>
        <vehicle id="f_1.2" x="-70.96" y="-58.80" angle="33.24" type="AggressiveLanechangingdriver" speed="0.89" pos="50.38" lane="E5_0" slope="0.00" acceleration="0.89"/>
        <vehicle id="f_1.3" x="-39.27" y="-14.22" angle="50.64" type="Motorcycle" speed="0.00" pos="105.33" lane="E5_0" slope="0.00" acceleration="0.00"/>
        <vehicle id="f_2.0" x="-30.96" y="-1.60" angle="90.00" type="DefensiveDriver" speed="3.68" pos="69.04" lane="E0_1" slope="0.00" acceleration="1.50"/>
        <vehicle id="f_3.0" x="384.46" y="4.80" angle="270.00" type="DeliveryTruck" speed="5.99" pos="15.54" lane="-E2_0" slope="0.00" acceleration="2.36"/>
        <vehicle id="f_3.1" x="314.05" y="1.60" angle="270.00" type="RecklessDriver" speed="1.83" pos="85.95" lane="-E2_1" slope="0.00" acceleration="1.83"/>
        <vehicle id="f_3.2" x="363.29" y="1.60" angle="270.00" type="CautiousDriver" speed="0.00" pos="36.71" lane="-E2_1" slope="0.00" acceleration="0.00"/>
        <vehicle id="f_4.0" x="251.56" y="35.72" angle="215.86" type="RecklessDriver" speed="7.88" pos="80.47" lane="E7_0" slope="0.00" acceleration="3.45"/>
        <vehicle id="f_4.1" x="235.60" y="14.99" angle="225.14" type="RecklessDriver" speed="0.95" pos="106.82" lane="E7_0" slope="0.00" acceleration="0.95"/>
        <vehicle id="f_4.2" x="273.77" y="66.45" angle="215.86" type="HumanLikeDriver" speed="0.00" pos="42.56" lane="E7_0" slope="0.00" acceleration="0.00"/>
        <vehicle id="f_5.0" x="393.65" y="1.60" angle="270.00" type="InexperiencedDriver" speed="2.45" pos="6.35" lane="-E2_1" slope="0.00" acceleration="1.00"/>
        <vehicle id="f_5.1" x="359.90" y="4.80" angle="270.00" type="HumanLikeDriver" speed="0.92" pos="40.10" lane="-E2_0" slope="0.00" acceleration="0.92"/>
        <vehicle id="f_5.2" x="394.43" y="4.80" angle="270.00" type="InexperiencedDriver" speed="0.00" pos="5.57" lane="-E2_0" slope="0.00" acceleration="0.00"/>
    </timestep>
    <timestep time="4.00">
        <vehicle id="f_0.0" x="-85.11" y="-4.80" angle="90.00" type="ElderlyDriver" speed="4.02" pos="14.89" lane="E0_0" slope="0.00" acceleration="1.16"/>
        <vehicle id="f_0.1" x="-62.45" y="-1.55" angle="89.37" type="AggressiveLanechangingdriver" speed="4.36" pos="37.55" lane="E0_1" slope="0.00" acceleration="1.45"/>
        <vehicle id="f_0.2" x="-94.02" y="-1.60" angle="90.00" type="DefensiveDriver" speed="0.69" pos="5.98" lane="E0_1" slope="0.00" acceleration="0.69"/>
        <vehicle id="f_0.3" x="-49.50" y="-4.80" angle="90.00" type="Aggressivejunctiondriver" speed="0.92" pos="50.50" lane="E0_0" slope="0.00" acceleration="0.92"/>
        <vehicle id="f_0.4" x="-33.99" y="-4.80" angle="90.00" type="AggressiveDriver" speed="0.00" pos="66.01" lane="E0_0" slope="0.00" acceleration="0.00"/>
        <vehicle id="f_1.0" x="-47.40" y="-23.04" angle="33.37" type="AggressiveDriver" speed="10.25" pos="93.20" lane="E5_0" slope="0.00" acceleration="-1.49"/>
        <vehicle id="f_1.1" x="-76.55" y="-67.31" angle="33.37" type="AggressiveDriver" speed="7.32" pos="40.19" lane="E5_0" slope="0.00" acceleration="0.56"/>
        <vehicle id="f_1.2" x="-69.40" y="-56.39" angle="33.10" type="AggressiveLanechangingdriver" speed="2.87" pos="53.25" lane="E5_0" slope="0.00" acceleration="1.97"/>
        <vehicle id="f_1.3" x="-36.82" y="-12.19" angle="50.48" type="Motorcycle" speed="3.18" pos="108.52" lane="E5_0" slope="0.00" acceleration="3.18"/>
        <vehicle id="f_2.0" x="-25.69" y="-1.60" angle="90.00" type="DefensiveDriver" speed="5.27" pos="74.31" lane="E0_1" slope="0.00" acceleration="1.59"/>
        <vehicle id="f_3.0" x="376.99" y="4.80" angle="270.00" type="DeliveryTruck" speed="7.47" pos="23.01" lane="-E2_0" slope="0.00" acceleration="1.48"/>
        <vehicle id="f_3.1" x="308.24" y="1.60" angle="270.00" type="RecklessDriver" speed="5.80" pos="91.76" lane="-E2_1" slope="0.00" acceleration="3.97"/>
        <vehicle id="f_3.2" x="362.84" y="1.60" angle="270.00" type="CautiousDriver" speed="0.46" pos="37.16" lane="-E2_1" slope="0.00" acceleration="0.46"/>
        <vehicle id="f_4.0" x="245.49" y="27.33" angle="215.86" type="RecklessDriver" speed="10.36" pos="90.83" lane="E7_0" slope="0.00" acceleration="2.48"/>
        <vehicle id="f_4.1" x="231.60" y="13.10" angle="244.74" type="RecklessDriver" speed="4.43" pos="111.25" lane="E7_0" slope="0.00" acceleration="3.48"/>
        <vehicle id="f_4.2" x="273.49" y="66.06" angle="215.86" type="HumanLikeDriver" speed="0.48" pos="43.03" lane="E7_0" slope="0.00" acceleration="0.48"/>
        <vehicle id="f_4.3" x="297.21" y="98.88" angle="215.86" type="SportsCarDriver" speed="0.00" pos="2.54" lane="E7_0" slope="0.00" acceleration="0.00"/>
        <vehicle id="f_5.0" x="390.28" y="1.60" angle="270.00" type="InexperiencedDriver" speed="3.37" pos="9.72" lane="-E2_1" slope="0.00" acceleration="0.93"/>
        <vehicle id="f_5.1" x="356.99" y="4.80" angle="270.00" type="HumanLikeDriver" speed="2.91" pos="43.01" lane="-E2_0" slope="0.00" acceleration="1.99"/>
        <vehicle id="f_5.2" x="394.43" y="4.80" angle="270.00" type="InexperiencedDriver" speed="0.00" pos="5.57" lane="-E2_0" slope="0.00" acceleration="0.00"/>
    </timestep>
    <timestep time="5.00">
        <vehicle id="f_0.0" x="-79.97" y="-4.80" angle="90.00" type="ElderlyDriver" speed="5.13" pos="20.03" lane="E0_0" slope="0.00" acceleration="1.11"/>
        <vehicle id="f_0.1" x="-55.94" y="-1.51" angle="89.71" type="AggressiveLanechangingdriver" speed="6.51" pos="44.06" lane="E0_1" slope="0.00" acceleration="2.16"/>
        <vehicle id="f_0.2" x="-91.86" y="-1.60" angle="90.00" type="DefensiveDriver" speed="2.16" pos="8.14" lane="E0_1" slope="0.00" acceleration="1.48"/>
        <vehicle id="f_0.3" x="-46.84" y="-4.80" angle="90.00" type="Aggressivejunctiondriver" speed="2.66" pos="53.16" lane="E0_0" slope="0.00" acceleration="1.75"/>
        <vehicle id="f_0.4" x="-31.70" y="-4.80" angle="90.00" type="AggressiveDriver" speed="2.29" pos="68.30" lane="E0_0" slope="0.00" acceleration="2.29"/>
        <vehicle id="f_1.0" x="-41.24" y="-15.83" angle="47.05" type="AggressiveDriver" speed="9.58" pos="102.79" lane="E5_0" slope="0.00" acceleration="-0.67"/>
        <vehicle id="f_1.1" x="-73.09" y="-62.05" angle="33.37" type="AggressiveDriver" speed="6.31" pos="46.50" lane="E5_0" slope="0.00" acceleration="-1.02"/>
        <vehicle id="f_1.2" x="-66.70" y="-52.36" angle="33.82" type="AggressiveLanechangingdriver" speed="4.85" pos="58.10" lane="E5_0" slope="0.00" acceleration="1.98"/>
        <vehicle id="f_1.3" x="-28.68" y="-8.15" angle="90.17" type="Motorcycle" speed="9.34" pos="117.86" lane="E5_0" slope="0.00" acceleration="6.15"/>
        <vehicle id="f_2.0" x="-18.78" y="-1.60" angle="90.00" type="DefensiveDriver" speed="6.90" pos="81.22" lane="E0_1" slope="0.00" acceleration="1.63"/>
        <vehicle id="f_3.0" x="368.97" y="4.80" angle="270.00" type="DeliveryTruck" speed="8.02" pos="31.03" lane="-E2_0" slope="0.00" acceleration="0.55"/>
        <vehicle id="f_3.1" x="298.99" y="1.60" angle="270.00" type="RecklessDriver" speed="9.59" pos="1.36" lane="-E3_2" slope="0.00" acceleration="3.79"/>
        <vehicle id="f_3.2" x="361.39" y="1.60" angle="270.00" type="CautiousDriver" speed="1.45" pos="38.61" lane="-E2_1" slope="0.00" acceleration="0.99"/>
        <vehicle id="f_4.0" x="238.80" y="18.07" angle="215.86" type="RecklessDriver" speed="11.42" pos="102.25" lane="E7_0" slope="0.00" acceleration="1.06"/>
        <vehicle id="f_4.1" x="224.09" y="9.59" angle="245.77" type="RecklessDriver" speed="8.29" pos="7.64" lane=":J3_0_0" slope="0.00" acceleration="3.86"/>
        <vehicle id="f_4.2" x="272.60" y="64.84" angle="215.86" type="HumanLikeDriver" speed="1.51" pos="44.55" lane="E7_0" slope="0.00" acceleration="1.04"/>
        <vehicle id="f_4.3" x="295.80" y="96.93" angle="215.86" type="SportsCarDriver" speed="2.40" pos="4.94" lane="E7_0" slope="0.00" acceleration="2.40"/>
        <vehicle id="f_5.0" x="386.04" y="4.80" angle="270.00" type="InexperiencedDriver" speed="4.23" pos="13.96" lane="-E2_0" slope="0.00" acceleration="0.86"/>
        <vehicle id="f_5.1" x="352.09" y="4.80" angle="270.00" type="HumanLikeDriver" speed="4.90" pos="47.91" lane="-E2_0" slope="0.00" acceleration="2.00"/>
        <vehicle id="f_5.2" x="394.00" y="4.80" angle="270.00" type="InexperiencedDriver" speed="0.43" pos="6.00" lane="-E2_0" slope="0.00" acceleration="0.43"/>
    </timestep>
    <timestep time="6.00">
        <vehicle id="f_0.0" x="-73.77" y="-4.80" angle="90.00" type="ElderlyDriver" speed="6.20" pos="26.23" lane="E0_0" slope="0.00" acceleration="1.07"/>
        <vehicle id="f_0.1" x="-47.10" y="-1.57" angle="90.39" type="AggressiveLanechangingdriver" speed="8.84" pos="52.90" lane="E0_1" slope="0.00" acceleration="2.32"/>
        <vehicle id="f_0.2" x="-88.21" y="-1.60" angle="90.00" type="DefensiveDriver" speed="3.65" pos="11.79" lane="E0_1" slope="0.00" acceleration="1.49"/>
        <vehicle id="f_0.3" x="-42.48" y="-4.80" angle="90.00" type="Aggressivejunctiondriver" speed="4.35" pos="57.52" lane="E0_0" slope="0.00" acceleration="1.69"/>
        <vehicle id="f_0.4" x="-24.46" y="-4.80" angle="90.00" type="AggressiveDriver" speed="7.25" pos="75.54" lane="E0_0" slope="0.00" acceleration="4.96"/>
        <vehicle id="f_1.0" x="-31.65" y="-8.84" angle="58.47" type="AggressiveDriver" speed="11.91" pos="114.69" lane="E5_0" slope="0.00" acceleration="2.33"/>
        <vehicle id="f_1.1" x="-69.19" y="-56.13" angle="33.37" type="AggressiveDriver" speed="7.09" pos="53.59" lane="E5_0" slope="0.00" acceleration="0.78"/>
        <vehicle id="f_1.2" x="-63.00" y="-46.74" angle="33.33" type="AggressiveLanechangingdriver" speed="6.73" pos="64.83" lane="E5_0" slope="0.00" acceleration="1.88"/>
        <vehicle id="f_1.3" x="-15.79" y="-8.12" angle="90.43" type="Motorcycle" speed="12.90" pos="130.75" lane="E5_0" slope="0.00" acceleration="3.56"/>
        <vehicle id="f_2.0" x="-10.28" y="-1.60" angle="90.00" type="DefensiveDriver" speed="8.50" pos="1.50" lane=":J1_4_1" slope="0.00" acceleration="1.60"/>
        <vehicle id="f_3.0" x="360.54" y="4.80" angle="270.00" type="DeliveryTruck" speed="8.43" pos="39.46" lane="-E2_0" slope="0.00" acceleration="0.41"/>
        <vehicle id="f_3.1" x="285.52" y="1.60" angle="270.00" type="RecklessDriver" speed="13.47" pos="14.83" lane="-E3_2" slope="0.00" acceleration="3.87"/>
        <vehicle id="f_3.2" x="358.94" y="1.60" angle="270.00" type="CautiousDriver" speed="2.45" pos="41.06" lane="-E2_1" slope="0.00" acceleration="1.00"/>
        <vehicle id="f_3.3" x="378.10" y="1.60" angle="270.00" type="RecklessDriver" speed="0.00" pos="21.90" lane="-E2_1" slope="0.00" acceleration="0.00"/>
        <vehicle id="f_4.0" x="228.12" y="11.38" angle="243.99" type="RecklessDriver" speed="12.88" pos="3.23" lane=":J3_0_0" slope="0.00" acceleration="1.46"/>
        <vehicle id="f_4.1" x="213.46" y="4.80" angle="234.61" type="RecklessDriver" speed="10.79" pos="0.61" lane="-E1_1" slope="0.00" acceleration="2.51"/>
        <vehicle id="f_4.2" x="271.11" y="62.77" angle="215.86" type="HumanLikeDriver" speed="2.55" pos="47.10" lane="E7_0" slope="0.00" acceleration="1.04"/>
        <vehicle id="f_4.3" x="291.25" y="90.63" angle="215.86" type="SportsCarDriver" speed="7.77" pos="12.72" lane="E7_0" slope="0.00" acceleration="5.37"/>
        <vehicle id="f_4.4" x="296.03" y="97.24" angle="215.86" type="AggressiveLanechangingdriver" speed="0.00" pos="4.57" lane="E7_0" slope="0.00" acceleration="0.00"/>
        <vehicle id="f_4.5" x="236.33" y="15.33" angle="220.48" type="Aggressivejunctiondriver" speed="0.00" pos="106.02" lane="E7_0" slope="0.00" acceleration="0.00"/>
        <vehicle id="f_5.0" x="380.86" y="4.80" angle="270.00" type="InexperiencedDriver" speed="5.19" pos="19.14" lane="-E2_0" slope="0.00" acceleration="0.95"/>
        <vehicle id="f_5.1" x="345.28" y="4.80" angle="270.00" type="HumanLikeDriver" speed="6.81" pos="54.72" lane="-E2_0" slope="0.00" acceleration="1.91"/>
        <vehicle id="f_5.2" x="393.67" y="4.80" angle="270.00" type="InexperiencedDriver" speed="0.33" pos="6.33" lane="-E2_0" slope="0.00" acceleration="-0.10"/>
    </timestep>
    <timestep time="7.00">
        <vehicle id="f_0.0" x="-66.32" y="-4.80" angle="90.00" type="ElderlyDriver" speed="7.45" pos="33.68" lane="E0_0" slope="0.00" acceleration="1.25"/>
        <vehicle id="f_0.1" x="-36.02" y="-1.66" angle="90.46" type="AggressiveLanechangingdriver" speed="11.08" pos="63.98" lane="E0_1" slope="0.00" acceleration="2.24"/>
        <vehicle id="f_0.2" x="-82.89" y="-1.60" angle="90.00" type="DefensiveDriver" speed="5.31" pos="17.11" lane="E0_1" slope="0.00" acceleration="1.66"/>
        <vehicle id="f_0.3" x="-36.27" y="-4.80" angle="90.00" type="Aggressivejunctiondriver" speed="6.21" pos="63.73" lane="E0_0" slope="0.00" acceleration="1.86"/>
        <vehicle id="f_0.4" x="-12.36" y="-4.80" angle="90.00" type="AggressiveDriver" speed="12.10" pos="87.64" lane="E0_0" slope="0.00" acceleration="4.85"/>
        <vehicle id="f_0.5" x="-53.50" y="-1.60" angle="90.00" type="SchoolBus" speed="0.00" pos="46.50" lane="E0_1" slope="0.00" acceleration="0.00"/>
        <vehicle id="f_1.0" x="-16.67" y="-8.08" angle="90.08" type="AggressiveDriver" speed="15.18" pos="129.87" lane="E5_0" slope="0.00" acceleration="3.27"/>
        <vehicle id="f_1.1" x="-64.30" y="-48.72" angle="33.37" type="AggressiveDriver" speed="8.88" pos="62.46" lane="E5_0" slope="0.00" acceleration="1.79"/>
        <vehicle id="f_1.2" x="-58.20" y="-39.57" angle="33.79" type="AggressiveLanechangingdriver" speed="8.63" pos="73.46" lane="E5_0" slope="0.00" acceleration="1.90"/>
        <vehicle id="f_1.3" x="-2.09" y="-4.81" angle="89.88" type="Motorcycle" speed="13.70" pos="5.78" lane="E4_1" slope="0.00" acceleration="0.80"/>
        <vehicle id="f_1.4" x="-73.22" y="-62.25" angle="33.37" type="EcoFriendlyDriver" speed="0.00" pos="46.26" lane="E5_0" slope="0.00" acceleration="0.00"/>
        <vehicle id="f_2.0" x="-0.41" y="-1.60" angle="90.00" type="DefensiveDriver" speed="9.88" pos="7.46" lane="E4_2" slope="0.00" acceleration="1.38"/>
        <vehicle id="f_3.0" x="351.31" y="4.80" angle="270.00" type="DeliveryTruck" speed="9.23" pos="48.69" lane="-E2_0" slope="0.00" acceleration="0.80"/>
        <vehicle id="f_3.1" x="268.89" y="1.60" angle="270.00" type="RecklessDriver" speed="16.64" pos="31.46" lane="-E3_2" slope="0.00" acceleration="3.17"/>
        <vehicle id="f_3.2" x="355.50" y="1.60" angle="270.00" type="CautiousDriver" speed="3.44" pos="44.50" lane="-E2_1" slope="0.00" acceleration="1.00"/>
        <vehicle id="f_3.3" x="376.33" y="1.60" angle="270.00" type="RecklessDriver" speed="1.76" pos="23.67" lane="-E2_1" slope="0.00" acceleration="1.76"/>
        <vehicle id="f_4.0" x="215.06" y="8.08" angle="264.99" type="RecklessDriver" speed="13.60" pos="16.82" lane=":J3_0_0" slope="0.00" acceleration="0.72"/>
        <vehicle id="f_4.1" x="200.84" y="4.80" angle="270.00" type="RecklessDriver" speed="12.61" pos="13.23" lane="-E1_1" slope="0.00" acceleration="1.82"/>
        <vehicle id="f_4.2" x="268.46" y="59.10" angle="215.86" type="HumanLikeDriver" speed="4.52" pos="51.62" lane="E7_0" slope="0.00" acceleration="1.97"/>
        <vehicle id="f_4.3" x="283.92" y="80.50" angle="215.86" type="SportsCarDriver" speed="12.51" pos="25.22" lane="E7_0" slope="0.00" acceleration="4.73"/>
        <vehicle id="f_4.4" x="296.03" y="97.24" angle="215.86" type="AggressiveLanechangingdriver" speed="0.00" pos="4.57" lane="E7_0" slope="0.00" acceleration="0.00"/>
        <vehicle id="f_4.5" x="235.90" y="15.13" angle="223.24" type="Aggressivejunctiondriver" speed="0.48" pos="106.50" lane="E7_0" slope="0.00" acceleration="0.48"/>
        <vehicle id="f_5.0" x="374.66" y="4.80" angle="270.00" type="InexperiencedDriver" speed="6.20" pos="25.34" lane="-E2_0" slope="0.00" acceleration="1.02"/>
        <vehicle id="f_5.1" x="336.61" y="4.80" angle="270.00" type="HumanLikeDriver" speed="8.67" pos="63.39" lane="-E2_0" slope="0.00" acceleration="1.86"/>
        <vehicle id="f_5.2" x="392.46" y="4.80" angle="270.00" type="InexperiencedDriver" speed="1.22" pos="7.54" lane="-E2_0" slope="0.00" acceleration="0.89"/>
        <vehicle id="f_5.3" x="393.64" y="1.60" angle="270.00" type="InexperiencedDriver" speed="0.00" pos="6.36" lane="-E2_1" slope="0.00" acceleration="0.00"/>
    </timestep>
    <timestep time="8.00">
        <vehicle id="f_0.0" x="-57.71" y="-4.80" angle="90.00" type="ElderlyDriver" speed="8.61" pos="42.29" lane="E0_0" slope="0.00" acceleration="1.16"/>
        <vehicle id="f_0.1" x="-22.87" y="-1.47" angle="89.18" type="AggressiveLanechangingdriver" speed="13.15" pos="77.13" lane="E0_1" slope="0.00" acceleration="2.07"/>
        <vehicle id="f_0.2" x="-76.79" y="-1.60" angle="90.00" type="DefensiveDriver" speed="6.10" pos="23.21" lane="E0_1" slope="0.00" acceleration="0.79"/>
        <vehicle id="f_0.3" x="-28.39" y="-4.80" angle="90.00" type="Aggressivejunctiondriver" speed="7.88" pos="71.61" lane="E0_0" slope="0.00" acceleration="1.67"/>
        <vehicle id="f_0.4" x="3.60" y="-4.80" angle="90.00" type="AggressiveDriver" speed="15.96" pos="11.47" lane="E4_1" slope="0.00" acceleration="3.86"/>
        <vehicle id="f_0.5" x="-52.84" y="-1.60" angle="90.00" type="SchoolBus" speed="0.66" pos="47.16" lane="E0_1" slope="0.00" acceleration="0.66"/>
        <vehicle id="f_1.0" x="0.52" y="-8.00" angle="90.00" type="AggressiveDriver" speed="17.20" pos="8.39" lane="E4_0" slope="0.00" acceleration="2.01"/>
        <vehicle id="f_1.1" x="-58.57" y="-40.00" angle="33.37" type="AggressiveDriver" speed="10.43" pos="72.89" lane="E5_0" slope="0.00" acceleration="1.56"/>
        <vehicle id="f_1.2" x="-52.51" y="-31.22" angle="34.26" type="AggressiveLanechangingdriver" speed="10.11" pos="83.56" lane="E5_0" slope="0.00" acceleration="1.48"/>
        <vehicle id="f_1.3" x="11.32" y="-4.85" angle="90.18" type="Motorcycle" speed="13.41" pos="19.19" lane="E4_1" slope="0.00" acceleration="-0.29"/>
        <vehicle id="f_1.4" x="-72.74" y="-61.52" angle="33.37" type="EcoFriendlyDriver" speed="0.87" pos="47.12" lane="E5_0" slope="0.00" acceleration="0.87"/>
        <vehicle id="f_2.0" x="10.82" y="-1.60" angle="90.00" type="DefensiveDriver" speed="11.22" pos="18.69" lane="E4_2" slope="0.00" acceleration="1.35"/>
        <vehicle id="f_3.0" x="341.13" y="1.60" angle="270.00" type="DeliveryTruck" speed="10.19" pos="58.87" lane="-E2_1" slope="0.00" acceleration="0.95"/>
        <vehicle id="f_3.1" x="249.38" y="1.60" angle="270.00" type="RecklessDriver" speed="19.51" pos="50.97" lane="-E3_2" slope="0.00" acceleration="2.87"/>
        <vehicle id="f_3.2" x="351.09" y="1.60" angle="270.00" type="CautiousDriver" speed="4.41" pos="48.91" lane="-E2_1" slope="0.00" acceleration="0.96"/>
        <vehicle id="f_3.3" x="370.73" y="1.60" angle="270.00" type="RecklessDriver" speed="5.60" pos="29.27" lane="-E2_1" slope="0.00" acceleration="3.84"/>
        <vehicle id="f_4.0" x="200.53" y="4.80" angle="270.00" type="RecklessDriver" speed="14.53" pos="13.54" lane="-E1_1" slope="0.00" acceleration="0.93"/>
        <vehicle id="f_4.1" x="185.97" y="1.60" angle="270.00" type="RecklessDriver" speed="14.87" pos="28.10" lane="-E1_2" slope="0.00" acceleration="2.26"/>
        <vehicle id="f_4.2" x="264.64" y="53.82" angle="215.86" type="HumanLikeDriver" speed="6.51" pos="58.14" lane="E7_0" slope="0.00" acceleration="1.99"/>
        <vehicle id="f_4.3" x="275.43" y="68.75" angle="215.86" type="SportsCarDriver" speed="14.49" pos="39.72" lane="E7_0" slope="0.00" acceleration="1.98"/>
        <vehicle id="f_4.4" x="295.75" y="96.85" angle="215.78" type="AggressiveLanechangingdriver" speed="0.48" pos="5.04" lane="E7_0" slope="0.00" acceleration="0.48"/>
        <vehicle id="f_4.5" x="234.53" y="14.48" angle="232.13" type="Aggressivejunctiondriver" speed="1.51" pos="108.01" lane="E7_0" slope="0.00" acceleration="1.04"/>
        <vehicle id="f_4.6" x="239.84" y="19.51" angle="215.86" type="EcoFriendlyDriver" speed="0.00" pos="100.47" lane="E7_0" slope="0.00" acceleration="0.00"/>
        <vehicle id="f_5.0" x="367.45" y="4.80" angle="270.00" type="InexperiencedDriver" speed="7.21" pos="32.55" lane="-E2_0" slope="0.00" acceleration="1.00"/>
        <vehicle id="f_5.1" x="325.93" y="4.80" angle="270.00" type="HumanLikeDriver" speed="10.68" pos="74.07" lane="-E2_0" slope="0.00" acceleration="2.01"/>
        <vehicle id="f_5.2" x="390.28" y="4.80" angle="270.00" type="InexperiencedDriver" speed="2.17" pos="9.72" lane="-E2_0" slope="0.00" acceleration="0.96"/>
        <vehicle id="f_5.3" x="393.21" y="1.60" angle="270.00" type="InexperiencedDriver" speed="0.44" pos="6.79" lane="-E2_1" slope="0.00" acceleration="0.44"/>
    </timestep>
    <timestep time="9.00">
        <vehicle id="f_0.0" x="-47.84" y="-4.80" angle="90.00" type="ElderlyDriver" speed="9.87" pos="52.16" lane="E0_0" slope="0.00" acceleration="1.27"/>
        <vehicle id="f_0.1" x="-8.18" y="-4.67" angle="89.99" type="AggressiveLanechangingdriver" speed="14.69" pos="3.60" lane=":J1_4_0" slope="0.00" acceleration="1.54"/>
        <vehicle id="f_0.2" x="-70.73" y="-1.60" angle="90.00" type="DefensiveDriver" speed="6.06" pos="29.27" lane="E0_1" slope="0.00" acceleration="-0.05"/>
        <vehicle id="f_0.3" x="-18.93" y="-1.60" angle="90.00" type="Aggressivejunctiondriver" speed="9.46" pos="81.07" lane="E0_1" slope="0.00" acceleration="1.58"/>
        <vehicle id="f_0.4" x="18.09" y="-4.80" angle="90.00" type="AggressiveDriver" speed="14.49" pos="25.96" lane="E4_1" slope="0.00" acceleration="-1.47"/>
        <vehicle id="f_0.5" x="-50.71" y="-1.60" angle="90.00" type="SchoolBus" speed="2.13" pos="49.29" lane="E0_1" slope="0.00" acceleration="1.48"/>
        <vehicle id="f_1.0" x="16.73" y="-8.00" angle="90.00" type="AggressiveDriver" speed="16.21" pos="24.60" lane="E4_0" slope="0.00" acceleration="-0.99"/>
        <vehicle id="f_1.1" x="-52.25" y="-30.40" angle="33.37" type="AggressiveDriver" speed="11.49" pos="84.39" lane="E5_0" slope="0.00" acceleration="1.06"/>
        <vehicle id="f_1.2" x="-46.10" y="-21.50" angle="33.44" type="AggressiveLanechangingdriver" speed="11.64" pos="95.20" lane="E5_0" slope="0.00" acceleration="1.53"/>
        <vehicle id="f_1.3" x="27.43" y="-4.94" angle="90.32" type="Motorcycle" speed="16.12" pos="35.30" lane="E4_1" slope="0.00" acceleration="2.71"/>
        <vehicle id="f_1.4" x="-71.19" y="-59.16" angle="33.37" type="EcoFriendlyDriver" speed="2.82" pos="49.95" lane="E5_0" slope="0.00" acceleration="1.96"/>
        <vehicle id="f_1.5" x="-77.12" y="-68.17" angle="33.37" type="CautiousDriver" speed="0.00" pos="39.16" lane="E5_0" slope="0.00" acceleration="0.00"/>
        <vehicle id="f_1.6" x="-64.45" y="-48.94" angle="33.37" type="AggressiveLanechangingdriver" speed="0.00" pos="62.19" lane="E5_0" slope="0.00" acceleration="0.00"/>
        <vehicle id="f_1.7" x="-85.64" y="-81.11" angle="33.37" type="EcoFriendlyDriver" speed="0.00" pos="23.67" lane="E5_0" slope="0.00" acceleration="0.00"/>
        <vehicle id="f_1.8" x="-26.83" y="-8.09" angle="89.80" type="Motorcycle" speed="0.00" pos="119.71" lane="E5_0" slope="0.00" acceleration="0.00"/>
        <vehicle id="f_2.0" x="22.04" y="-1.60" angle="90.00" type="DefensiveDriver" speed="11.22" pos="29.91" lane="E4_2" slope="0.00" acceleration="0.00"/>
        <vehicle id="f_3.0" x="328.56" y="1.60" angle="270.00" type="DeliveryTruck" speed="12.56" pos="71.44" lane="-E2_1" slope="0.00" acceleration="2.38"/>