<?xml version="1.0" encoding="UTF-8"?>

<!-- generated on 2023-12-14 02:45:18 by Eclipse SUMO GUI Version 1.18.0
<configuration xmlns:xsi="http://www.w3.org/2001/XMLSchema-instance" xsi:noNamespaceSchemaLocation="http://sumo.dlr.de/xsd/sumoConfiguration.xsd">

    <input>
        <net-file value="/Users/sindhujach/Desktop/ECE_699/Traffic_simulation/Weeklytask-14-12-23/2023-12-14-00-11-54/osm.net.xml.gz"/>
        <route-files value="/Users/sindhujach/Desktop/ECE_699/Traffic_simulation/Weeklytask-14-12-23/2023-12-14-00-11-54/osm.passenger.trips.xml"/>
    </input>

    <output>
        <fcd-output value="/Users/sindhujach/Desktop/ECE_699/Traffic_simulation/Weeklytask-14-12-23/2023-12-14-00-11-54/fcd_output.xml"/>
        <fcd-output.geo value="true"/>
    </output>

    <processing>
        <ignore-route-errors value="true"/>
    </processing>

    <routing>
        <device.rerouting.adaptation-steps value="18"/>
        <device.rerouting.adaptation-interval value="10"/>
    </routing>

    <report>
        <verbose value="true"/>
        <duration-log.statistics value="true"/>
        <no-step-log value="true"/>
    </report>

    <gui_only>
        <gui-settings-file value="/Users/sindhujach/Desktop/ECE_699/Traffic_simulation/Weeklytask-14-12-23/2023-12-14-00-11-54/osm.view.xml"/>
    </gui_only>

</configuration>
-->

<fcd-export xmlns:xsi="http://www.w3.org/2001/XMLSchema-instance" xsi:noNamespaceSchemaLocation="http://sumo.dlr.de/xsd/fcd_file.xsd">
    <timestep time="0.00">
        <vehicle id="veh0" x="-80.546101" y="43.543748" angle="261.33" type="veh_passenger" speed="18.22" pos="5.10" lane="382673078_0" slope="0.00"/>
    </timestep>
    <timestep time="1.00">
        <vehicle id="veh0" x="-80.546322" y="43.543695" angle="261.33" type="veh_passenger" speed="18.15" pos="23.25" lane="382673078_1" slope="0.00"/>
    </timestep>
    <timestep time="2.00">
        <vehicle id="veh0" x="-80.546492" y="43.543680" angle="265.18" type="veh_passenger" speed="13.69" pos="36.94" lane="382673078_1" slope="0.00"/>
    </timestep>
    <timestep time="3.00">
        <vehicle id="veh0" x="-80.546607" y="43.543679" angle="270.69" type="veh_passenger" speed="9.19" pos="46.14" lane="382673078_1" slope="0.00"/>
    </timestep>
    <timestep time="4.00">
        <vehicle id="veh0" x="-80.546752" y="43.543702" angle="280.49" type="veh_passenger" speed="11.71" pos="6.64" lane=":1605900486_0_1" slope="0.00"/>
    </timestep>
    <timestep time="5.00">
        <vehicle id="veh0" x="-80.546897" y="43.543750" angle="295.21" type="veh_passenger" speed="13.01" pos="6.16" lane="467326070#1_1" slope="0.00"/>
    </timestep>
    <timestep time="6.00">
        <vehicle id="veh0" x="-80.547056" y="43.543756" angle="256.69" type="veh_passenger" speed="14.02" pos="1.49" lane="467326072_1" slope="0.00"/>
    </timestep>
    <timestep time="7.00">
        <vehicle id="veh0" x="-80.547226" y="43.543719" angle="229.90" type="veh_passenger" speed="14.37" pos="8.56" lane=":1605900310_0_0" slope="0.00"/>
    </timestep>
    <timestep time="8.00">
        <vehicle id="veh0" x="-80.547321" y="43.543605" angle="203.86" type="veh_passenger" speed="14.24" pos="4.38" lane=":1605900377_2_0" slope="0.00"/>
    </timestep>
    <timestep time="9.00">
        <vehicle id="veh0" x="-80.547303" y="43.543466" angle="165.80" type="veh_passenger" speed="14.44" pos="1.67" lane=":1605900457_2_0" slope="0.00"/>
    </timestep>
    <timestep time="10.00">
        <vehicle id="veh0" x="-80.547188" y="43.543359" angle="134.50" type="veh_passenger" speed="14.54" pos="6.79" lane="467326073#0_0" slope="0.00"/>
    </timestep>
    <timestep time="11.00">
        <vehicle id="veh0" x="-80.547031" y="43.543309" angle="109.16" type="veh_passenger" speed="13.57" pos="0.53" lane=":1605900344_0_0" slope="0.00"/>
    </timestep>
    <timestep time="12.00">
        <vehicle id="veh0" x="-80.546898" y="43.543217" angle="137.96" type="veh_passenger" speed="14.91" pos="6.58" lane="186984721_0" slope="0.00"/>
    </timestep>
    <timestep time="13.00">
        <vehicle id="veh0" x="-80.546774" y="43.543098" angle="142.67" type="veh_passenger" speed="16.22" pos="22.80" lane="186984721_0" slope="0.00"/>
    </timestep>
    <timestep time="14.00">
        <vehicle id="veh0" x="-80.546597" y="43.543001" angle="126.06" type="veh_passenger" speed="18.11" pos="0.25" lane="-41919137_0" slope="0.00"/>
    </timestep>
    <timestep time="15.00">
        <vehicle id="veh0" x="-80.546450" y="43.542859" angle="142.57" type="veh_passenger" speed="19.69" pos="19.94" lane="-41919137_0" slope="0.00"/>
    </timestep>
    <timestep time="16.00">
        <vehicle id="veh0" x="-80.546286" y="43.542701" angle="142.57" type="veh_passenger" speed="22.06" pos="42.00" lane="-41919137_0" slope="0.00"/>
    </timestep>
    <timestep time="17.00">
        <vehicle id="veh0" x="-80.546121" y="43.542537" angle="144.58" type="veh_passenger" speed="22.57" pos="64.56" lane="-41919137_0" slope="0.00"/>
    </timestep>
    <timestep time="18.00">
        <vehicle id="veh0" x="-80.545956" y="43.542366" angle="144.58" type="veh_passenger" speed="23.20" pos="87.76" lane="-41919137_0" slope="0.00"/>
    </timestep>
    <timestep time="19.00">
        <vehicle id="veh0" x="-80.545791" y="43.542195" angle="144.28" type="veh_passenger" speed="23.16" pos="110.93" lane="-41919137_0" slope="0.00"/>
    </timestep>
    <timestep time="20.00">
        <vehicle id="veh0" x="-80.545625" y="43.542026" angle="144.23" type="veh_passenger" speed="23.10" pos="134.03" lane="-41919137_0" slope="0.00"/>
    </timestep>
    <timestep time="21.00">
        <vehicle id="veh0" x="-80.545464" y="43.541861" angle="144.23" type="veh_passenger" speed="22.51" pos="156.54" lane="-41919137_0" slope="0.00"/>
    </timestep>
    <timestep time="22.00">
        <vehicle id="veh0" x="-80.545301" y="43.541695" angle="144.23" type="veh_passenger" speed="22.66" pos="179.20" lane="-41919137_0" slope="0.00"/>
    </timestep>
    <timestep time="23.00">
        <vehicle id="veh0" x="-80.545141" y="43.541531" angle="144.23" type="veh_passenger" speed="22.28" pos="201.48" lane="-41919137_0" slope="0.00"/>
    </timestep>
    <timestep time="24.00">
        <vehicle id="veh0" x="-80.544981" y="43.541358" angle="150.20" type="veh_passenger" speed="23.21" pos="224.69" lane="-41919137_0" slope="0.00"/>
    </timestep>
    <timestep time="25.00">
        <vehicle id="veh0" x="-80.544843" y="43.541180" angle="150.20" type="veh_passenger" speed="22.66" pos="247.35" lane="-41919137_0" slope="0.00"/>
    </timestep>
    <timestep time="26.00">
        <vehicle id="veh0" x="-80.544701" y="43.540996" angle="150.20" type="veh_passenger" speed="23.43" pos="270.78" lane="-41919137_0" slope="0.00"/>
    </timestep>
    <timestep time="27.00">
        <vehicle id="veh0" x="-80.544564" y="43.540821" angle="150.20" type="veh_passenger" speed="22.37" pos="293.15" lane="-41919137_0" slope="0.00"/>
    </timestep>
    <timestep time="28.00">
        <vehicle id="veh0" x="-80.544428" y="43.540646" angle="150.20" type="veh_passenger" speed="22.35" pos="315.50" lane="-41919137_0" slope="0.00"/>
    </timestep>
    <timestep time="29.00">
        <vehicle id="veh0" x="-80.544290" y="43.540466" angle="151.83" type="veh_passenger" speed="22.92" pos="338.42" lane="-41919137_0" slope="0.00"/>
    </timestep>
    <timestep time="30.00">
        <vehicle id="veh0" x="-80.544191" y="43.540273" angle="159.12" type="veh_passenger" speed="22.83" pos="361.25" lane="-41919137_0" slope="0.00"/>
    </timestep>
    <timestep time="31.00">
        <vehicle id="veh0" x="-80.544093" y="43.540083" angle="159.12" type="veh_passenger" speed="22.62" pos="383.87" lane="-41919137_0" slope="0.00"/>
    </timestep>
    <timestep time="32.00">
        <vehicle id="veh0" x="-80.543991" y="43.539885" angle="159.12" type="veh_passenger" speed="23.38" pos="407.25" lane="-41919137_0" slope="0.00"/>
    </timestep>
    <timestep time="33.00">
        <vehicle id="veh0" x="-80.543893" y="43.539696" angle="159.12" type="veh_passenger" speed="22.52" pos="429.77" lane="-41919137_0" slope="0.00"/>
    </timestep>
    <timestep time="34.00">
        <vehicle id="veh0" x="-80.543792" y="43.539499" angle="159.12" type="veh_passenger" speed="23.31" pos="453.09" lane="-41919137_0" slope="0.00"/>
    </timestep>
    <timestep time="35.00">
        <vehicle id="veh0" x="-80.543694" y="43.539310" angle="159.12" type="veh_passenger" speed="22.46" pos="475.55" lane="-41919137_0" slope="0.00"/>
    </timestep>
    <timestep time="36.00">
        <vehicle id="veh0" x="-80.543597" y="43.539121" angle="159.12" type="veh_passenger" speed="22.36" pos="497.90" lane="-41919137_0" slope="0.00"/>
    </timestep>
    <timestep time="37.00">
        <vehicle id="veh0" x="-80.543517" y="43.538924" angle="165.10" type="veh_passenger" speed="22.81" pos="520.72" lane="-41919137_0" slope="0.00"/>
    </timestep>
    <timestep time="38.00">
        <vehicle id="veh0" x="-80.543444" y="43.538720" angle="165.10" type="veh_passenger" speed="23.41" pos="544.13" lane="-41919137_0" slope="0.00"/>
    </timestep>
    <timestep time="39.00">
        <vehicle id="veh0" x="-80.543372" y="43.538518" angle="165.10" type="veh_passenger" speed="23.21" pos="567.34" lane="-41919137_0" slope="0.00"/>
    </timestep>
    <timestep time="40.00">
        <vehicle id="veh0" x="-80.543302" y="43.538322" angle="165.10" type="veh_passenger" speed="22.45" pos="589.79" lane="-41919137_0" slope="0.00"/>
    </timestep>
    <timestep time="41.00">
        <vehicle id="veh0" x="-80.543230" y="43.538121" angle="165.10" type="veh_passenger" speed="23.12" pos="612.91" lane="-41919137_0" slope="0.00"/>
    </timestep>
    <timestep time="42.00">
        <vehicle id="veh0" x="-80.543166" y="43.537916" angle="170.06" type="veh_passenger" speed="23.32" pos="636.23" lane="-41919137_0" slope="0.00"/>
    </timestep>
    <timestep time="43.00">
        <vehicle id="veh0" x="-80.543119" y="43.537711" angle="170.06" type="veh_passenger" speed="23.09" pos="659.32" lane="-41919137_0" slope="0.00"/>
    </timestep>
    <timestep time="44.00">
        <vehicle id="veh0" x="-80.543072" y="43.537512" angle="170.06" type="veh_passenger" speed="22.41" pos="681.73" lane="-41919137_0" slope="0.00"/>
    </timestep>
    <timestep time="45.00">
        <vehicle id="veh0" x="-80.543024" y="43.537307" angle="170.06" type="veh_passenger" speed="23.16" pos="704.89" lane="-41919137_0" slope="0.00"/>
    </timestep>
    <timestep time="46.00">
        <vehicle id="veh0" x="-80.542976" y="43.537101" angle="170.06" type="veh_passenger" speed="23.21" pos="728.10" lane="-41919137_0" slope="0.00"/>
    </timestep>
    <timestep time="47.00">
        <vehicle id="veh0" x="-80.542957" y="43.536897" angle="177.13" type="veh_passenger" speed="22.69" pos="750.79" lane="-41919137_0" slope="0.00"/>
    </timestep>
    <timestep time="48.00">
        <vehicle id="veh0" x="-80.542944" y="43.536688" angle="177.13" type="veh_passenger" speed="23.22" pos="774.01" lane="-41919137_0" slope="0.00"/>
    </timestep>
    <timestep time="49.00">
        <vehicle id="veh0" x="-80.542931" y="43.536487" angle="177.13" type="veh_passenger" speed="22.35" pos="796.36" lane="-41919137_0" slope="0.00"/>
    </timestep>
    <timestep time="50.00">
        <vehicle id="veh0" x="-80.542919" y="43.536278" angle="177.13" type="veh_passenger" speed="23.26" pos="819.62" lane="-41919137_0" slope="0.00"/>
    </timestep>
    <timestep time="51.00">
        <vehicle id="veh0" x="-80.542906" y="43.536075" angle="177.13" type="veh_passenger" speed="22.59" pos="842.21" lane="-41919137_0" slope="0.00"/>
    </timestep>
    <timestep time="52.00">
        <vehicle id="veh0" x="-80.542894" y="43.535865" angle="177.75" type="veh_passenger" speed="23.30" pos="865.51" lane="-41919137_0" slope="0.00"/>
    </timestep>
    <timestep time="53.00">
        <vehicle id="veh0" x="-80.542901" y="43.535664" angle="181.18" type="veh_passenger" speed="22.36" pos="887.87" lane="-41919137_0" slope="0.00"/>
    </timestep>
    <timestep time="54.00">
        <vehicle id="veh0" x="-80.542908" y="43.535460" angle="181.18" type="veh_passenger" speed="22.68" pos="910.55" lane="-41919137_0" slope="0.00"/>
    </timestep>
    <timestep time="55.00">
        <vehicle id="veh0" x="-80.542916" y="43.535258" angle="181.18" type="veh_passenger" speed="22.40" pos="932.95" lane="-41919137_0" slope="0.00"/>
    </timestep>
    <timestep time="56.00">
        <vehicle id="veh0" x="-80.542923" y="43.535057" angle="181.18" type="veh_passenger" speed="22.41" pos="955.36" lane="-41919137_0" slope="0.00"/>
    </timestep>
    <timestep time="57.00">
        <vehicle id="veh0" x="-80.542930" y="43.534854" angle="181.33" type="veh_passenger" speed="22.46" pos="977.82" lane="-41919137_0" slope="0.00"/>
    </timestep>
    <timestep time="58.00">
        <vehicle id="veh0" x="-80.542954" y="43.534651" angle="184.59" type="veh_passenger" speed="22.71" pos="1000.53" lane="-41919137_0" slope="0.00"/>
    </timestep>
    <timestep time="59.00">
        <vehicle id="veh0" x="-80.542978" y="43.534448" angle="184.59" type="veh_passenger" speed="22.55" pos="1023.08" lane="-41919137_0" slope="0.00"/>
    </timestep>
    <timestep time="60.00">
        <vehicle id="veh0" x="-80.543002" y="43.534245" angle="184.59" type="veh_passenger" speed="22.65" pos="1045.72" lane="-41919137_0" slope="0.00"/>
    </timestep>
    <timestep time="61.00">
        <vehicle id="veh0" x="-80.543032" y="43.534045" angle="186.33" type="veh_passenger" speed="22.40" pos="1068.13" lane="-41919137_0" slope="0.00"/>
    </timestep>
    <timestep time="62.00">
        <vehicle id="veh0" x="-80.543064" y="43.533842" angle="186.33" type="veh_passenger" speed="22.63" pos="1090.75" lane="-41919137_0" slope="0.00"/>
    </timestep>
    <timestep time="63.00">
        <vehicle id="veh0" x="-80.543098" y="43.533632" angle="186.33" type="veh_passenger" speed="23.54" pos="1114.30" lane="-41919137_0" slope="0.00"/>
    </timestep>
    <timestep time="64.00">
        <vehicle id="veh0" x="-80.543131" y="43.533428" angle="186.33" type="veh_passenger" speed="22.79" pos="1137.09" lane="-41919137_0" slope="0.00"/>
    </timestep>
    <timestep time="65.00">
        <vehicle id="veh0" x="-80.543163" y="43.533228" angle="186.33" type="veh_passenger" speed="22.36" pos="1159.45" lane="-41919137_0" slope="0.00"/>
    </timestep>
    <timestep time="66.00">
        <vehicle id="veh0" x="-80.543196" y="43.533023" angle="186.33" type="veh_passenger" speed="22.95" pos="1182.40" lane="-41919137_0" slope="0.00"/>
    </timestep>
    <timestep time="67.00">
        <vehicle id="veh0" x="-80.543228" y="43.532821" angle="186.33" type="veh_passenger" speed="22.59" pos="1204.99" lane="-41919137_0" slope="0.00"/>
    </timestep>
    <timestep time="68.00">
        <vehicle id="veh0" x="-80.543261" y="43.532616" angle="186.33" type="veh_passenger" speed="22.87" pos="1227.87" lane="-41919137_0" slope="0.00"/>
    </timestep>
    <timestep time="69.00">
        <vehicle id="veh0" x="-80.543293" y="43.532416" angle="186.33" type="veh_passenger" speed="22.42" pos="1250.28" lane="-41919137_0" slope="0.00"/>
    </timestep>
    <timestep time="70.00">
        <vehicle id="veh0" x="-80.543326" y="43.532208" angle="186.33" type="veh_passenger" speed="23.22" pos="1273.50" lane="-41919137_0" slope="0.00"/>
    </timestep>
    <timestep time="71.00">
        <vehicle id="veh0" x="-80.543359" y="43.532000" angle="186.33" type="veh_passenger" speed="23.20" pos="1296.71" lane="-41919137_0" slope="0.00"/>
    </timestep>
    <timestep time="72.00">
        <vehicle id="veh0" x="-80.543392" y="43.531796" angle="186.33" type="veh_passenger" speed="22.88" pos="1319.58" lane="-41919137_0" slope="0.00"/>
    </timestep>
    <timestep time="73.00">
        <vehicle id="veh0" x="-80.543425" y="43.531591" angle="186.33" type="veh_passenger" speed="22.93" pos="1342.51" lane="-41919137_0" slope="0.00"/>
    </timestep>
    <timestep time="74.00">
        <vehicle id="veh0" x="-80.543457" y="43.531390" angle="186.33" type="veh_passenger" speed="22.45" pos="1364.96" lane="-41919137_0" slope="0.00"/>
    </timestep>
    <timestep time="75.00">
        <vehicle id="veh0" x="-80.543489" y="43.531191" angle="186.33" type="veh_passenger" speed="22.29" pos="1387.24" lane="-41919137_0" slope="0.00"/>
    </timestep>
    <timestep time="76.00">
        <vehicle id="veh1" x="-80.548495" y="43.543578" angle="132.21" type="veh_passenger" speed="13.03" pos="5.10" lane="186984747_0" slope="0.00"/>
    </timestep>
    <timestep time="77.00">
        <vehicle id="veh1" x="-80.548379" y="43.543501" angle="132.21" type="veh_passenger" speed="12.58" pos="17.68" lane="186984747_0" slope="0.00"/>
    </timestep>
    <timestep time="78.00">
        <vehicle id="veh1" x="-80.548259" y="43.543439" angle="115.00" type="veh_passenger" speed="11.84" pos="29.52" lane="186984747_0" slope="0.00"/>
    </timestep>
    <timestep time="79.00">
        <vehicle id="veh1" x="-80.548121" y="43.543398" angle="112.15" type="veh_passenger" speed="11.97" pos="41.49" lane="186984747_0" slope="0.00"/>
    </timestep>
    <timestep time="80.00">
        <vehicle id="veh1" x="-80.547978" y="43.543365" angle="99.89" type="veh_passenger" speed="12.06" pos="53.54" lane="186984747_0" slope="0.00"/>
    </timestep>
    <timestep time="81.00">
        <vehicle id="veh1" x="-80.547824" y="43.543356" angle="92.33" type="veh_passenger" speed="12.38" pos="65.92" lane="186984747_0" slope="0.00"/>
    </timestep>
    <timestep time="82.00">
        <vehicle id="veh1" x="-80.547670" y="43.543379" angle="77.93" type="veh_passenger" speed="12.55" pos="78.47" lane="186984747_0" slope="0.00"/>
    </timestep>
    <timestep time="83.00">
        <vehicle id="veh1" x="-80.547524" y="43.543408" angle="74.35" type="veh_passenger" speed="12.13" pos="90.60" lane="186984747_0" slope="0.00"/>
    </timestep>
    <timestep time="84.00">
        <vehicle id="veh1" x="-80.547420" y="43.543419" angle="86.37" type="veh_passenger" speed="8.44" pos="99.04" lane="186984747_0" slope="0.00"/>
    </timestep>
    <timestep time="85.00">
        <vehicle id="veh1" x="-80.547313" y="43.543420" angle="88.25" type="veh_passenger" speed="8.57" pos="2.33" lane=":1605900457_0_0" slope="0.00"/>
    </timestep>
    <timestep time="86.00">
        <vehicle id="veh1" x="-80.547229" y="43.543389" angle="128.63" type="veh_passenger" speed="7.91" pos="2.23" lane="467326073#0_0" slope="0.00"/>
    </timestep>
    <timestep time="87.00">
        <vehicle id="veh1" x="-80.547134" y="43.543335" angle="121.94" type="veh_passenger" speed="9.59" pos="11.82" lane="467326073#0_0" slope="0.00"/>
    </timestep>
    <timestep time="88.00">
        <vehicle id="veh1" x="-80.546993" y="43.543293" angle="116.79" type="veh_passenger" speed="12.13" pos="4.13" lane=":1605900344_0_0" slope="0.00"/>
    </timestep>
    <timestep time="89.00">
        <vehicle id="veh1" x="-80.546876" y="43.543196" angle="142.47" type="veh_passenger" speed="14.19" pos="9.45" lane="186984721_0" slope="0.00"/>
    </timestep>
    <timestep time="90.00">
        <vehicle id="veh1" x="-80.546751" y="43.543078" angle="141.11" type="veh_passenger" speed="16.21" pos="0.90" lane=":1977405985_2_0" slope="0.00"/>
    </timestep>
    <timestep time="91.00">
        <vehicle id="veh1" x="-80.546579" y="43.542983" angle="136.79" type="veh_passenger" speed="17.75" pos="2.76" lane="-41919137_0" slope="0.00"/>
    </timestep>
    <timestep time="92.00">
        <vehicle id="veh1" x="-80.546429" y="43.542839" angle="142.57" type="veh_passenger" speed="19.97" pos="22.73" lane="-41919137_0" slope="0.00"/>
    </timestep>
    <timestep time="93.00">
        <vehicle id="veh1" x="-80.546279" y="43.542695" angle="142.57" type="veh_passenger" speed="20.08" pos="42.81" lane="-41919137_0" slope="0.00"/>
    </timestep>
    <timestep time="94.00">
        <vehicle id="veh1" x="-80.546130" y="43.542545" angle="144.58" type="veh_passenger" speed="20.59" pos="63.40" lane="-41919137_0" slope="0.00"/>
    </timestep>
    <timestep time="95.00">
        <vehicle id="veh1" x="-80.545988" y="43.542399" angle="144.58" type="veh_passenger" speed="19.85" pos="83.25" lane="-41919137_0" slope="0.00"/>
    </timestep>
    <timestep time="96.00">
        <vehicle id="veh1" x="-80.545843" y="43.542249" angle="144.58" type="veh_passenger" speed="20.37" pos="103.61" lane="-41919137_0" slope="0.00"/>
    </timestep>
    <timestep time="97.00">
        <vehicle id="veh1" x="-80.545698" y="43.542101" angle="144.23" type="veh_passenger" speed="20.24" pos="123.86" lane="-41919137_0" slope="0.00"/>
    </timestep>
    <timestep time="98.00">
        <vehicle id="veh1" x="-80.545555" y="43.541954" angle="144.23" type="veh_passenger" speed="19.97" pos="143.82" lane="-41919137_0" slope="0.00"/>
    </timestep>
    <timestep time="99.00">
        <vehicle id="veh1" x="-80.545414" y="43.541810" angle="144.23" type="veh_passenger" speed="19.59" pos="163.41" lane="-41919137_0" slope="0.00"/>
    </timestep>
    <timestep time="100.00">
        <vehicle id="veh1" x="-80.545272" y="43.541665" angle="144.23" type="veh_passenger" speed="19.85" pos="183.27" lane="-41919137_0" slope="0.00"/>
    </timestep>
    <timestep time="101.00">
        <vehicle id="veh1" x="-80.545127" y="43.541517" angle="144.23" type="veh_passenger" speed="20.18" pos="203.44" lane="-41919137_0" slope="0.00"/>
    </timestep>
    <timestep time="102.00">
        <vehicle id="veh1" x="-80.544984" y="43.541361" angle="150.20" type="veh_passenger" speed="20.82" pos="224.26" lane="-41919137_0" slope="0.00"/>
    </timestep>
    <timestep time="103.00">
        <vehicle id="veh1" x="-80.544859" y="43.541200" angle="150.20" type="veh_passenger" speed="20.59" pos="244.85" lane="-41919137_0" slope="0.00"/>
    </timestep>
    <timestep time="104.00">
        <vehicle id="veh1" x="-80.544732" y="43.541037" angle="150.20" type="veh_passenger" speed="20.76" pos="265.62" lane="-41919137_0" slope="0.00"/>
    </timestep>
    <timestep time="105.00">
        <vehicle id="veh1" x="-80.544606" y="43.540875" angle="150.20" type="veh_passenger" speed="20.69" pos="286.30" lane="-41919137_0" slope="0.00"/>
    </timestep>
    <timestep time="106.00">
        <vehicle id="veh1" x="-80.544480" y="43.540713" angle="150.20" type="veh_passenger" speed="20.67" pos="306.97" lane="-41919137_0" slope="0.00"/>
    </timestep>
    <timestep time="107.00">
        <vehicle id="veh1" x="-80.544357" y="43.540554" angle="150.20" type="veh_passenger" speed="20.25" pos="327.22" lane="-41919137_0" slope="0.00"/>
    </timestep>
    <timestep time="108.00">
        <vehicle id="veh1" x="-80.544252" y="43.540392" angle="159.12" type="veh_passenger" speed="19.90" pos="347.12" lane="-41919137_0" slope="0.00"/>
    </timestep>
    <timestep time="109.00">
        <vehicle id="veh1" x="-80.544166" y="43.540225" angle="159.12" type="veh_passenger" speed="19.88" pos="367.00" lane="-41919137_0" slope="0.00"/>
    </timestep>
    <timestep time="110.00">
        <vehicle id="veh1" x="-80.544078" y="43.540055" angle="159.12" type="veh_passenger" speed="20.14" pos="387.14" lane="-41919137_0" slope="0.00"/>
    </timestep>
    <timestep time="111.00">
        <vehicle id="veh1" x="-80.543990" y="43.539883" angle="159.12" type="veh_passenger" speed="20.36" pos="407.49" lane="-41919137_0" slope="0.00"/>
    </timestep>
    <timestep time="112.00">
        <vehicle id="veh1" x="-80.543900" y="43.539709" angle="159.12" type="veh_passenger" speed="20.65" pos="428.15" lane="-41919137_0" slope="0.00"/>
    </timestep>
    <timestep time="113.00">
        <vehicle id="veh1" x="-80.543810" y="43.539535" angle="159.12" type="veh_passenger" speed="20.70" pos="448.85" lane="-41919137_0" slope="0.00"/>
    </timestep>
    <timestep time="114.00">
        <vehicle id="veh1" x="-80.543720" y="43.539360" angle="159.12" type="veh_passenger" speed="20.70" pos="469.55" lane="-41919137_0" slope="0.00"/>
    </timestep>
    <timestep time="115.00">
        <vehicle id="veh1" x="-80.543634" y="43.539194" angle="159.12" type="veh_passenger" speed="19.73" pos="489.28" lane="-41919137_0" slope="0.00"/>
    </timestep>
    <timestep time="116.00">
        <vehicle id="veh1" x="-80.543552" y="43.539021" angle="164.86" type="veh_passenger" speed="20.37" pos="509.65" lane="-41919137_0" slope="0.00"/>
    </timestep>
    <timestep time="117.00">
        <vehicle id="veh1" x="-80.543488" y="43.538843" angle="165.10" type="veh_passenger" speed="20.42" pos="530.07" lane="-41919137_0" slope="0.00"/>
    </timestep>
    <timestep time="118.00">
        <vehicle id="veh1" x="-80.543425" y="43.538668" angle="165.10" type="veh_passenger" speed="20.09" pos="550.16" lane="-41919137_0" slope="0.00"/>
    </timestep>
    <timestep time="119.00">
        <vehicle id="veh1" x="-80.543360" y="43.538486" angle="165.10" type="veh_passenger" speed="20.82" pos="570.98" lane="-41919137_0" slope="0.00"/>
    </timestep>
    <timestep time="120.00">
        <vehicle id="veh1" x="-80.543297" y="43.538310" angle="165.10" type="veh_passenger" speed="20.21" pos="591.18" lane="-41919137_0" slope="0.00"/>
    </timestep>
    <timestep time="121.00">
        <vehicle id="veh1" x="-80.543236" y="43.538137" angle="165.10" type="veh_passenger" speed="19.84" pos="611.03" lane="-41919137_0" slope="0.00"/>
    </timestep>
    <timestep time="122.00">
        <vehicle id="veh1" x="-80.543178" y="43.537965" angle="168.36" type="veh_passenger" speed="19.67" pos="630.70" lane="-41919137_0" slope="0.00"/>
    </timestep>
    <timestep time="123.00">
        <vehicle id="veh1" x="-80.543136" y="43.537788" angle="170.06" type="veh_passenger" speed="20.01" pos="650.70" lane="-41919137_0" slope="0.00"/>
    </timestep>
    <timestep time="124.00">
        <vehicle id="veh1" x="-80.543095" y="43.537612" angle="170.06" type="veh_passenger" speed="19.79" pos="670.49" lane="-41919137_0" slope="0.00"/>
    </timestep>
    <timestep time="125.00">
        <vehicle id="veh1" x="-80.543053" y="43.537428" angle="170.06" type="veh_passenger" speed="20.70" pos="691.19" lane="-41919137_0" slope="0.00"/>
    </timestep>
    <timestep time="126.00">
        <vehicle id="veh1" x="-80.543011" y="43.537248" angle="170.06" type="veh_passenger" speed="20.32" pos="711.51" lane="-41919137_0" slope="0.00"/>
    </timestep>
    <timestep time="127.00">
        <vehicle id="veh1" x="-80.542970" y="43.537072" angle="170.06" type="veh_passenger" speed="19.78" pos="731.29" lane="-41919137_0" slope="0.00"/>
    </timestep>
    <timestep time="128.00">
        <vehicle id="veh1" x="-80.542956" y="43.536891" angle="177.13" type="veh_passenger" speed="20.17" pos="751.46" lane="-41919137_0" slope="0.00"/>
    </timestep>
    <timestep time="129.00">
        <vehicle id="veh1" x="-80.542945" y="43.536712" angle="177.13" type="veh_passenger" speed="19.90" pos="771.36" lane="-41919137_0" slope="0.00"/>
    </timestep>
    <timestep time="130.00">
        <vehicle id="veh1" x="-80.542934" y="43.536528" angle="177.13" type="veh_passenger" speed="20.50" pos="791.85" lane="-41919137_0" slope="0.00"/>
    </timestep>
    <timestep time="131.00">
        <vehicle id="veh1" x="-80.542923" y="43.536345" angle="177.13" type="veh_passenger" speed="20.32" pos="812.17" lane="-41919137_0" slope="0.00"/>
    </timestep>
    <timestep time="132.00">
        <vehicle id="veh1" x="-80.542911" y="43.536159" angle="177.13" type="veh_passenger" speed="20.68" pos="832.86" lane="-41919137_0" slope="0.00"/>
    </timestep>
    <timestep time="133.00">
        <vehicle id="veh1" x="-80.542900" y="43.535980" angle="177.13" type="veh_passenger" speed="19.92" pos="852.78" lane="-41919137_0" slope="0.00"/>
    </timestep>
    <timestep time="134.00">
        <vehicle id="veh1" x="-80.542896" y="43.535793" angle="181.18" type="veh_passenger" speed="20.72" pos="873.50" lane="-41919137_0" slope="0.00"/>
    </timestep>
    <timestep time="135.00">
        <vehicle id="veh1" x="-80.542903" y="43.535607" angle="181.18" type="veh_passenger" speed="20.66" pos="894.16" lane="-41919137_0" slope="0.00"/>
    </timestep>
    <timestep time="136.00">
        <vehicle id="veh1" x="-80.542910" y="43.535429" angle="181.18" type="veh_passenger" speed="19.88" pos="914.04" lane="-41919137_0" slope="0.00"/>
    </timestep>
    <timestep time="137.00">
        <vehicle id="veh1" x="-80.542916" y="43.535249" angle="181.18" type="veh_passenger" speed="19.98" pos="934.02" lane="-41919137_0" slope="0.00"/>
    </timestep>
    <timestep time="138.00">
        <vehicle id="veh1" x="-80.542922" y="43.535071" angle="181.18" type="veh_passenger" speed="19.70" pos="953.72" lane="-41919137_0" slope="0.00"/>
    </timestep>
    <timestep time="139.00">
        <vehicle id="veh1" x="-80.542929" y="43.534894" angle="181.18" type="veh_passenger" speed="19.73" pos="973.45" lane="-41919137_0" slope="0.00"/>
    </timestep>
    <timestep time="140.00">
        <vehicle id="veh1" x="-80.542947" y="43.534713" angle="184.59" type="veh_passenger" speed="20.09" pos="993.54" lane="-41919137_0" slope="0.00"/>
    </timestep>
    <timestep time="141.00">
        <vehicle id="veh1" x="-80.542969" y="43.534527" angle="184.59" type="veh_passenger" speed="20.73" pos="1014.26" lane="-41919137_0" slope="0.00"/>
    </timestep>
    <timestep time="142.00">
        <vehicle id="veh1" x="-80.542990" y="43.534352" angle="184.59" type="veh_passenger" speed="19.60" pos="1033.86" lane="-41919137_0" slope="0.00"/>
    </timestep>
    <timestep time="143.00">
        <vehicle id="veh1" x="-80.543012" y="43.534171" angle="185.39" type="veh_passenger" speed="20.16" pos="1054.02" lane="-41919137_0" slope="0.00"/>
    </timestep>
    <timestep time="144.00">