<?xml version="1.0" encoding="UTF-8"?>

<!-- generated on 2023-12-13 19:39:38 by Eclipse SUMO GUI Version 1.18.0
<configuration xmlns:xsi="http://www.w3.org/2001/XMLSchema-instance" xsi:noNamespaceSchemaLocation="http://sumo.dlr.de/xsd/sumoConfiguration.xsd">

    <input>
        <net-file value="Highway_route.net.xml"/>
        <route-files value="Highway.rou.xml"/>
    </input>

    <output>
        <fcd-output value="fcd-output.xml"/>
        <fcd-output.geo value="true"/>
        <amitran-output value="trajectory"/>
        <collision-output value="collision-output"/>
        <statistic-output value="statistic-output"/>
    </output>

    <time>
        <begin value="0"/>
        <end value="1000"/>
    </time>

    <processing>
        <collision.action value="remove"/>
        <max-num-vehicles value="40"/>
    </processing>

</configuration>
-->

<fcd-export xmlns:xsi="http://www.w3.org/2001/XMLSchema-instance" xsi:noNamespaceSchemaLocation="http://sumo.dlr.de/xsd/fcd_file.xsd">
    <timestep time="0.00">
        <vehicle id="f_0.0" x="-17.158000" y="-4.800000" angle="90.00" type="Aggressivejunctiondriver" speed="0.00" pos="82.84" lane="E0_0" slope="0.00"/>
        <vehicle id="f_1.0" x="-34.727066" y="-10.654241" angle="52.12" type="Aggressivejunctiondriver" speed="0.00" pos="111.12" lane="E5_0" slope="0.00"/>
        <vehicle id="f_2.0" x="-21.693700" y="-1.600000" angle="90.00" type="HumanLikeDriver" speed="0.00" pos="78.31" lane="E0_1" slope="0.00"/>
        <vehicle id="f_3.0" x="362.872400" y="4.800000" angle="270.00" type="ElderlyDriver" speed="0.00" pos="37.13" lane="-E2_0" slope="0.00"/>
        <vehicle id="f_4.0" x="263.017193" y="51.575792" angle="215.86" type="AggressiveDriver" speed="0.00" pos="60.91" lane="E7_0" slope="0.00"/>
        <vehicle id="f_5.0" x="377.838500" y="1.600000" angle="270.00" type="HumanLikeDriver" speed="0.00" pos="22.16" lane="-E2_1" slope="0.00"/>
    </timestep>
    <timestep time="1.00">
        <vehicle id="f_0.0" x="-16.242351" y="-4.800000" angle="90.00" type="Aggressivejunctiondriver" speed="0.92" pos="83.76" lane="E0_0" slope="0.00"/>
        <vehicle id="f_0.1" x="-88.586500" y="-4.800000" angle="90.00" type="DefensiveDriver" speed="0.00" pos="11.41" lane="E0_0" slope="0.00"/>
        <vehicle id="f_1.0" x="-33.938101" y="-10.189593" angle="53.75" type="Aggressivejunctiondriver" speed="0.92" pos="112.03" lane="E5_0" slope="0.00"/>
        <vehicle id="f_1.1" x="-89.363675" y="-86.764499" angle="33.37" type="CautiousDriver" speed="0.00" pos="16.90" lane="E5_0" slope="0.00"/>
        <vehicle id="f_2.0" x="-20.778042" y="-1.600000" angle="90.00" type="HumanLikeDriver" speed="0.92" pos="79.22" lane="E0_1" slope="0.00"/>
        <vehicle id="f_3.0" x="362.323001" y="4.800000" angle="270.00" type="ElderlyDriver" speed="0.55" pos="37.68" lane="-E2_0" slope="0.00"/>
        <vehicle id="f_4.0" x="261.844482" y="49.953444" angle="215.86" type="AggressiveDriver" speed="2.00" pos="62.91" lane="E7_0" slope="0.00"/>
        <vehicle id="f_5.0" x="376.922840" y="1.600000" angle="270.00" type="HumanLikeDriver" speed="0.92" pos="23.08" lane="-E2_1" slope="0.00"/>
    </timestep>
    <timestep time="2.00">
        <vehicle id="f_0.0" x="-13.337330" y="-4.800000" angle="90.00" type="Aggressivejunctiondriver" speed="2.91" pos="86.66" lane="E0_0" slope="0.00"/>
        <vehicle id="f_0.1" x="-87.900961" y="-4.800000" angle="90.00" type="DefensiveDriver" speed="0.69" pos="12.10" lane="E0_0" slope="0.00"/>
        <vehicle id="f_1.0" x="-31.435571" y="-8.715771" angle="58.90" type="Aggressivejunctiondriver" speed="2.90" pos="114.94" lane="E5_0" slope="0.00"/>
        <vehicle id="f_1.1" x="-89.112074" y="-86.382468" angle="33.37" type="CautiousDriver" speed="0.46" pos="17.36" lane="E5_0" slope="0.00"/>
        <vehicle id="f_1.2" x="-93.694333" y="-93.340152" angle="33.37" type="Motorcycle" speed="0.00" pos="9.03" lane="E5_0" slope="0.00"/>
        <vehicle id="f_2.0" x="-17.872851" y="-1.600000" angle="90.00" type="HumanLikeDriver" speed="2.91" pos="82.13" lane="E0_1" slope="0.00"/>
        <vehicle id="f_3.0" x="360.579803" y="4.800000" angle="270.00" type="ElderlyDriver" speed="1.74" pos="39.42" lane="-E2_0" slope="0.00"/>
        <vehicle id="f_3.1" x="383.244100" y="4.800000" angle="270.00" type="CautiousDriver" speed="0.00" pos="16.76" lane="-E2_0" slope="0.00"/>
        <vehicle id="f_4.0" x="257.780493" y="44.331251" angle="215.86" type="AggressiveDriver" speed="6.94" pos="69.85" lane="E7_0" slope="0.00"/>
        <vehicle id="f_4.1" x="231.792281" y="13.189195" angle="240.05" type="DeliveryTruck" speed="0.00" pos="111.03" lane="E7_0" slope="0.00"/>
        <vehicle id="f_5.0" x="374.017595" y="1.600000" angle="270.00" type="HumanLikeDriver" speed="2.91" pos="25.98" lane="-E2_1" slope="0.00"/>
    </timestep>
    <timestep time="3.00">
        <vehicle id="f_0.0" x="-8.437484" y="-4.800000" angle="90.00" type="Aggressivejunctiondriver" speed="4.90" pos="3.34" lane=":J1_4_0" slope="0.00"/>
        <vehicle id="f_0.1" x="-85.725430" y="-4.800000" angle="90.00" type="DefensiveDriver" speed="2.18" pos="14.27" lane="E0_0" slope="0.00"/>
        <vehicle id="f_0.2" x="-25.411100" y="-1.600000" angle="90.00" type="CautiousDriver" speed="0.00" pos="74.59" lane="E0_1" slope="0.00"/>
        <vehicle id="f_0.3" x="-20.211500" y="-4.800000" angle="90.00" type="SchoolBus" speed="0.00" pos="79.79" lane="E0_0" slope="0.00"/>
        <vehicle id="f_1.0" x="-26.715956" y="-8.087428" angle="81.90" type="Aggressivejunctiondriver" speed="4.89" pos="119.82" lane="E5_0" slope="0.00"/>
        <vehicle id="f_1.1" x="-88.313685" y="-85.170197" angle="33.37" type="CautiousDriver" speed="1.45" pos="18.81" lane="E5_0" slope="0.00"/>
        <vehicle id="f_1.2" x="-93.444299" y="-92.954461" angle="33.25" type="Motorcycle" speed="0.46" pos="9.49" lane="E5_0" slope="0.00"/>
        <vehicle id="f_1.3" x="-73.113217" y="-62.089870" angle="33.37" type="DefensiveDriver" speed="0.00" pos="46.45" lane="E5_0" slope="0.00"/>
        <vehicle id="f_2.0" x="-12.970302" y="-1.600000" angle="90.00" type="HumanLikeDriver" speed="4.90" pos="87.03" lane="E0_1" slope="0.00"/>
        <vehicle id="f_3.0" x="357.636958" y="4.800000" angle="270.00" type="ElderlyDriver" speed="2.94" pos="42.36" lane="-E2_0" slope="0.00"/>
        <vehicle id="f_3.1" x="382.796332" y="4.800000" angle="270.00" type="CautiousDriver" speed="0.45" pos="17.20" lane="-E2_0" slope="0.00"/>
        <vehicle id="f_3.2" x="337.901700" y="4.800000" angle="270.00" type="SchoolBus" speed="0.00" pos="62.10" lane="-E2_0" slope="0.00"/>
        <vehicle id="f_4.0" x="251.545890" y="35.706195" angle="215.86" type="AggressiveDriver" speed="10.64" pos="80.49" lane="E7_0" slope="0.00"/>
        <vehicle id="f_4.1" x="231.253162" y="12.934760" angle="242.47" type="DeliveryTruck" speed="0.60" pos="111.63" lane="E7_0" slope="0.00"/>
        <vehicle id="f_4.2" x="270.454853" y="61.865179" angle="215.86" type="CautiousDriver" speed="0.00" pos="48.21" lane="E7_0" slope="0.00"/>
        <vehicle id="f_5.0" x="369.114199" y="1.600000" angle="270.00" type="HumanLikeDriver" speed="4.90" pos="30.89" lane="-E2_1" slope="0.00"/>
        <vehicle id="f_5.1" x="385.623500" y="1.600000" angle="270.00" type="AggressiveLanechangingdriver" speed="0.00" pos="14.38" lane="-E2_1" slope="0.00"/>
        <vehicle id="f_5.2" x="344.849200" y="1.600000" angle="270.00" type="AggressiveDriver" speed="0.00" pos="55.15" lane="-E2_1" slope="0.00"/>
    </timestep>
    <timestep time="4.00">
        <vehicle id="f_0.0" x="-1.746284" y="-4.800000" angle="90.00" type="Aggressivejunctiondriver" speed="6.69" pos="6.12" lane="E4_1" slope="0.00"/>
        <vehicle id="f_0.1" x="-82.066982" y="-4.800000" angle="90.00" type="DefensiveDriver" speed="3.66" pos="17.93" lane="E0_0" slope="0.00"/>
        <vehicle id="f_0.2" x="-25.010831" y="-1.600000" angle="90.00" type="CautiousDriver" speed="0.40" pos="74.99" lane="E0_1" slope="0.00"/>
        <vehicle id="f_0.3" x="-19.629653" y="-4.800000" angle="90.00" type="SchoolBus" speed="0.58" pos="80.37" lane="E0_0" slope="0.00"/>
        <vehicle id="f_0.4" x="-48.086100" y="-1.600000" angle="90.00" type="CautiousDriver" speed="0.00" pos="51.91" lane="E0_1" slope="0.00"/>
        <vehicle id="f_1.0" x="-19.798951" y="-8.063760" angle="89.80" type="Aggressivejunctiondriver" speed="6.92" pos="126.74" lane="E5_0" slope="0.00"/>
        <vehicle id="f_1.1" x="-86.991106" y="-83.162000" angle="33.37" type="CautiousDriver" speed="2.40" pos="21.22" lane="E5_0" slope="0.00"/>
        <vehicle id="f_1.2" x="-91.549283" y="-90.069265" angle="33.30" type="Motorcycle" speed="3.45" pos="12.94" lane="E5_0" slope="0.00"/>
        <vehicle id="f_1.3" x="-72.736007" y="-61.517115" angle="33.37" type="DefensiveDriver" speed="0.69" pos="47.13" lane="E5_0" slope="0.00"/>
        <vehicle id="f_2.0" x="-6.139331" y="-1.600000" angle="90.00" type="HumanLikeDriver" speed="6.83" pos="1.73" lane="E4_2" slope="0.00"/>
        <vehicle id="f_3.0" x="353.760779" y="4.800000" angle="270.00" type="ElderlyDriver" speed="3.88" pos="46.24" lane="-E2_0" slope="0.00"/>
        <vehicle id="f_3.1" x="381.370013" y="4.800000" angle="270.00" type="CautiousDriver" speed="1.43" pos="18.63" lane="-E2_0" slope="0.00"/>
        <vehicle id="f_3.2" x="337.214953" y="4.800000" angle="270.00" type="SchoolBus" speed="0.69" pos="62.79" lane="-E2_0" slope="0.00"/>
        <vehicle id="f_4.0" x="244.716041" y="26.257664" angle="215.86" type="AggressiveDriver" speed="11.66" pos="92.15" lane="E7_0" slope="0.00"/>
        <vehicle id="f_4.1" x="229.556607" y="12.097681" angle="244.47" type="DeliveryTruck" speed="1.89" pos="1.62" lane=":J3_0_0" slope="0.00"/>
        <vehicle id="f_4.2" x="270.315154" y="61.671916" angle="215.86" type="CautiousDriver" speed="0.24" pos="48.45" lane="E7_0" slope="0.00"/>
        <vehicle id="f_5.0" x="363.108199" y="1.600000" angle="270.00" type="HumanLikeDriver" speed="6.01" pos="36.89" lane="-E2_1" slope="0.00"/>
        <vehicle id="f_5.1" x="384.754782" y="1.604843" angle="270.06" type="AggressiveLanechangingdriver" speed="0.87" pos="15.25" lane="-E2_1" slope="0.00"/>
        <vehicle id="f_5.2" x="342.561508" y="1.600000" angle="270.00" type="AggressiveDriver" speed="2.29" pos="57.44" lane="-E2_1" slope="0.00"/>
    </timestep>
    <timestep time="5.00">
        <vehicle id="f_0.0" x="6.777026" y="-4.800000" angle="90.00" type="Aggressivejunctiondriver" speed="8.52" pos="14.65" lane="E4_1" slope="0.00"/>
        <vehicle id="f_0.1" x="-76.933855" y="-1.600000" angle="90.00" type="DefensiveDriver" speed="5.13" pos="23.07" lane="E0_1" slope="0.00"/>
        <vehicle id="f_0.2" x="-23.650558" y="-1.600000" angle="90.00" type="CautiousDriver" speed="1.36" pos="76.35" lane="E0_1" slope="0.00"/>
        <vehicle id="f_0.3" x="-17.616315" y="-4.800000" angle="90.00" type="SchoolBus" speed="2.01" pos="82.38" lane="E0_0" slope="0.00"/>
        <vehicle id="f_0.4" x="-47.639283" y="-4.800000" angle="90.00" type="CautiousDriver" speed="0.45" pos="52.36" lane="E0_0" slope="0.00"/>
        <vehicle id="f_0.5" x="-87.302800" y="-1.600000" angle="90.00" type="RecklessDriver" speed="0.00" pos="12.70" lane="E0_1" slope="0.00"/>
        <vehicle id="f_1.0" x="-11.204010" y="-8.103380" angle="90.25" type="Aggressivejunctiondriver" speed="8.60" pos="0.54" lane=":J1_3_0" slope="0.00"/>
        <vehicle id="f_1.1" x="-85.169364" y="-80.395874" angle="33.37" type="CautiousDriver" speed="3.31" pos="24.53" lane="E5_0" slope="0.00"/>
        <vehicle id="f_1.2" x="-90.257817" y="-88.092702" angle="33.16" type="Motorcycle" speed="2.36" pos="15.30" lane="E5_0" slope="0.00"/>
        <vehicle id="f_1.3" x="-71.539005" y="-59.699592" angle="33.37" type="DefensiveDriver" speed="2.18" pos="49.31" lane="E5_0" slope="0.00"/>
        <vehicle id="f_2.0" x="2.601362" y="-1.600000" angle="90.00" type="HumanLikeDriver" speed="8.74" pos="10.47" lane="E4_2" slope="0.00"/>
        <vehicle id="f_3.0" x="349.401957" y="4.800000" angle="270.00" type="ElderlyDriver" speed="4.36" pos="50.60" lane="-E2_0" slope="0.00"/>
        <vehicle id="f_3.1" x="378.956760" y="4.800000" angle="270.00" type="CautiousDriver" speed="2.41" pos="21.04" lane="-E2_0" slope="0.00"/>
        <vehicle id="f_3.2" x="335.035994" y="4.800000" angle="270.00" type="SchoolBus" speed="2.18" pos="64.96" lane="-E2_0" slope="0.00"/>
        <vehicle id="f_3.3" x="399.266600" y="1.600000" angle="270.00" type="EcoFriendlyDriver" speed="0.00" pos="0.73" lane="-E2_1" slope="0.00"/>
        <vehicle id="f_4.0" x="239.778777" y="19.427369" angle="215.86" type="AggressiveDriver" speed="8.43" pos="100.58" lane="E7_0" slope="0.00"/>
        <vehicle id="f_4.1" x="225.584026" y="10.241944" angle="244.61" type="DeliveryTruck" speed="4.38" pos="6.01" lane=":J3_0_0" slope="0.00"/>
        <vehicle id="f_4.2" x="269.871895" y="61.058705" angle="215.86" type="CautiousDriver" speed="0.76" pos="49.21" lane="E7_0" slope="0.00"/>
        <vehicle id="f_5.0" x="356.253169" y="1.600000" angle="270.00" type="HumanLikeDriver" speed="6.86" pos="43.75" lane="-E2_1" slope="0.00"/>
        <vehicle id="f_5.1" x="381.944530" y="1.583827" angle="269.78" type="AggressiveLanechangingdriver" speed="2.81" pos="18.06" lane="-E2_1" slope="0.00"/>
        <vehicle id="f_5.2" x="335.326757" y="1.600000" angle="270.00" type="AggressiveDriver" speed="7.23" pos="64.67" lane="-E2_1" slope="0.00"/>
        <vehicle id="f_5.3" x="319.925800" y="4.800000" angle="270.00" type="DefensiveDriver" speed="0.00" pos="80.07" lane="-E2_0" slope="0.00"/>
    </timestep>
    <timestep time="6.00">
        <vehicle id="f_0.0" x="17.161826" y="-4.800000" angle="90.00" type="Aggressivejunctiondriver" speed="10.38" pos="25.03" lane="E4_1" slope="0.00"/>
        <vehicle id="f_0.1" x="-70.532686" y="-1.600000" angle="90.00" type="DefensiveDriver" speed="6.40" pos="29.47" lane="E0_1" slope="0.00"/>
        <vehicle id="f_0.2" x="-21.305118" y="-1.600000" angle="90.00" type="CautiousDriver" speed="2.35" pos="78.69" lane="E0_1" slope="0.00"/>
        <vehicle id="f_0.3" x="-14.130002" y="-4.800000" angle="90.00" type="SchoolBus" speed="3.49" pos="85.87" lane="E0_0" slope="0.00"/>
        <vehicle id="f_0.4" x="-46.211043" y="-4.800000" angle="90.00" type="CautiousDriver" speed="1.43" pos="53.79" lane="E0_0" slope="0.00"/>
        <vehicle id="f_0.5" x="-85.925919" y="-4.800000" angle="90.00" type="RecklessDriver" speed="1.38" pos="14.07" lane="E0_0" slope="0.00"/>
        <vehicle id="f_1.0" x="-1.386617" y="-8.000000" angle="90.00" type="Aggressivejunctiondriver" speed="9.83" pos="6.48" lane="E4_0" slope="0.00"/>
        <vehicle id="f_1.1" x="-82.850273" y="-76.874576" angle="33.37" type="CautiousDriver" speed="4.22" pos="28.74" lane="E5_0" slope="0.00"/>
        <vehicle id="f_1.2" x="-87.928622" y="-84.513482" angle="33.05" type="Motorcycle" speed="4.27" pos="19.57" lane="E5_0" slope="0.00"/>
        <vehicle id="f_1.3" x="-69.518705" y="-56.631978" angle="33.37" type="DefensiveDriver" speed="3.67" pos="52.98" lane="E5_0" slope="0.00"/>
        <vehicle id="f_1.4" x="-52.845507" y="-31.315463" angle="33.37" type="CautiousDriver" speed="0.00" pos="83.29" lane="E5_0" slope="0.00"/>
        <vehicle id="f_1.5" x="-35.600627" y="-11.203565" angle="50.64" type="AggressiveDriver" speed="0.00" pos="110.08" lane="E5_0" slope="0.00"/>
        <vehicle id="f_1.6" x="-23.988689" y="-8.078096" angle="89.80" type="RecklessDriver" speed="0.00" pos="122.55" lane="E5_0" slope="0.00"/>
        <vehicle id="f_2.0" x="13.229409" y="-1.600000" angle="90.00" type="HumanLikeDriver" speed="10.63" pos="21.10" lane="E4_2" slope="0.00"/>
        <vehicle id="f_3.0" x="344.733415" y="4.800000" angle="270.00" type="ElderlyDriver" speed="4.67" pos="55.27" lane="-E2_0" slope="0.00"/>
        <vehicle id="f_3.1" x="375.555359" y="4.800000" angle="270.00" type="CautiousDriver" speed="3.40" pos="24.44" lane="-E2_0" slope="0.00"/>
        <vehicle id="f_3.2" x="331.932454" y="4.800000" angle="270.00" type="SchoolBus" speed="3.10" pos="68.07" lane="-E2_0" slope="0.00"/>
        <vehicle id="f_3.3" x="398.395474" y="1.600000" angle="270.00" type="EcoFriendlyDriver" speed="0.87" pos="1.60" lane="-E2_1" slope="0.00"/>
        <vehicle id="f_4.0" x="233.323730" y="13.911959" angle="239.90" type="AggressiveDriver" speed="8.77" pos="109.34" lane="E7_0" slope="0.00"/>
        <vehicle id="f_4.1" x="219.011784" y="8.388098" angle="254.08" type="DeliveryTruck" speed="6.86" pos="12.86" lane=":J3_0_0" slope="0.00"/>
        <vehicle id="f_4.2" x="269.123526" y="60.023398" angle="215.86" type="CautiousDriver" speed="1.28" pos="50.49" lane="E7_0" slope="0.00"/>
        <vehicle id="f_4.3" x="241.778293" y="22.193533" angle="215.86" type="RecklessDriver" speed="0.00" pos="97.16" lane="E7_0" slope="0.00"/>
        <vehicle id="f_4.4" x="262.793988" y="51.267006" angle="215.86" type="DefensiveDriver" speed="0.00" pos="61.29" lane="E7_0" slope="0.00"/>
        <vehicle id="f_4.5" x="296.676154" y="98.140177" angle="215.86" type="AggressiveLanechangingdriver" speed="0.00" pos="3.45" lane="E7_0" slope="0.00"/>
        <vehicle id="f_5.0" x="347.508585" y="1.600000" angle="270.00" type="HumanLikeDriver" speed="8.74" pos="52.49" lane="-E2_1" slope="0.00"/>
        <vehicle id="f_5.1" x="377.166920" y="1.656901" angle="270.83" type="AggressiveLanechangingdriver" speed="4.78" pos="22.83" lane="-E2_1" slope="0.00"/>
        <vehicle id="f_5.2" x="323.289146" y="1.600000" angle="270.00" type="AggressiveDriver" speed="12.04" pos="76.71" lane="-E2_1" slope="0.00"/>
        <vehicle id="f_5.3" x="319.239051" y="4.800000" angle="270.00" type="DefensiveDriver" speed="0.69" pos="80.76" lane="-E2_0" slope="0.00"/>
    </timestep>
    <timestep time="7.00">
        <vehicle id="f_0.0" x="29.605282" y="-4.800000" angle="90.00" type="Aggressivejunctiondriver" speed="12.44" pos="37.48" lane="E4_1" slope="0.00"/>
        <vehicle id="f_0.1" x="-62.806060" y="-1.600000" angle="90.00" type="DefensiveDriver" speed="7.73" pos="37.19" lane="E0_1" slope="0.00"/>
        <vehicle id="f_0.2" x="-17.967786" y="-1.600000" angle="90.00" type="CautiousDriver" speed="3.34" pos="82.03" lane="E0_1" slope="0.00"/>
        <vehicle id="f_0.3" x="-9.086468" y="-4.800000" angle="90.00" type="SchoolBus" speed="5.04" pos="2.69" lane=":J1_4_0" slope="0.00"/>
        <vehicle id="f_0.4" x="-43.793568" y="-4.800000" angle="90.00" type="CautiousDriver" speed="2.42" pos="56.21" lane="E0_0" slope="0.00"/>
        <vehicle id="f_0.5" x="-80.611947" y="-4.800000" angle="90.00" type="RecklessDriver" speed="5.31" pos="19.39" lane="E0_0" slope="0.00"/>
        <vehicle id="f_1.0" x="9.747224" y="-8.000000" angle="90.00" type="Aggressivejunctiondriver" speed="11.13" pos="17.62" lane="E4_0" slope="0.00"/>
        <vehicle id="f_1.1" x="-80.012698" y="-72.566013" angle="33.37" type="CautiousDriver" speed="5.16" pos="33.90" lane="E5_0" slope="0.00"/>
        <vehicle id="f_1.2" x="-85.029726" y="-80.183533" angle="33.80" type="Motorcycle" speed="5.21" pos="24.78" lane="E5_0" slope="0.00"/>
        <vehicle id="f_1.3" x="-66.783936" y="-52.479516" angle="33.37" type="DefensiveDriver" speed="4.97" pos="57.95" lane="E5_0" slope="0.00"/>
        <vehicle id="f_1.4" x="-52.598060" y="-30.939740" angle="33.37" type="CautiousDriver" speed="0.45" pos="83.74" lane="E5_0" slope="0.00"/>
        <vehicle id="f_1.5" x="-34.109449" y="-10.290506" angle="53.39" type="AggressiveDriver" speed="1.75" pos="111.83" lane="E5_0" slope="0.00"/>
        <vehicle id="f_1.6" x="-22.197443" y="-8.071967" angle="89.80" type="RecklessDriver" speed="1.79" pos="124.34" lane="E5_0" slope="0.00"/>
        <vehicle id="f_1.7" x="-71.764709" y="-60.042301" angle="33.37" type="SportsCarDriver" speed="0.00" pos="48.90" lane="E5_0" slope="0.00"/>
        <vehicle id="f_2.0" x="25.748739" y="-1.600000" angle="90.00" type="HumanLikeDriver" speed="12.52" pos="33.62" lane="E4_2" slope="0.00"/>
        <vehicle id="f_3.0" x="340.117180" y="4.800000" angle="270.00" type="ElderlyDriver" speed="4.62" pos="59.88" lane="-E2_0" slope="0.00"/>
        <vehicle id="f_3.1" x="371.156895" y="4.800000" angle="270.00" type="CautiousDriver" speed="4.40" pos="28.84" lane="-E2_0" slope="0.00"/>
        <vehicle id="f_3.2" x="328.563728" y="4.800000" angle="270.00" type="SchoolBus" speed="3.37" pos="71.44" lane="-E2_0" slope="0.00"/>
        <vehicle id="f_3.3" x="395.585490" y="1.600000" angle="270.00" type="EcoFriendlyDriver" speed="2.81" pos="4.41" lane="-E2_1" slope="0.00"/>
        <vehicle id="f_4.0" x="224.128335" y="9.604223" angle="245.67" type="AggressiveDriver" speed="10.15" pos="7.60" lane=":J3_0_0" slope="0.00"/>
        <vehicle id="f_4.1" x="209.689602" y="4.800000" angle="244.04" type="DeliveryTruck" speed="9.34" pos="4.38" lane="-E1_1" slope="0.00"/>
        <vehicle id="f_4.2" x="268.182513" y="58.721584" angle="215.86" type="CautiousDriver" speed="1.61" pos="52.09" lane="E7_0" slope="0.00"/>
        <vehicle id="f_4.3" x="241.219534" y="21.420536" angle="215.86" type="RecklessDriver" speed="0.95" pos="98.12" lane="E7_0" slope="0.00"/>
        <vehicle id="f_4.4" x="262.584440" y="50.977114" angle="215.86" type="DefensiveDriver" speed="0.36" pos="61.65" lane="E7_0" slope="0.00"/>
        <vehicle id="f_4.5" x="296.390094" y="97.758471" angle="215.96" type="AggressiveLanechangingdriver" speed="0.48" pos="3.93" lane="E7_0" slope="0.00"/>
        <vehicle id="f_5.0" x="336.708191" y="1.600000" angle="270.00" type="HumanLikeDriver" speed="10.80" pos="63.29" lane="-E2_1" slope="0.00"/>
        <vehicle id="f_5.1" x="370.257283" y="1.727438" angle="270.58" type="AggressiveLanechangingdriver" speed="6.91" pos="29.74" lane="-E2_1" slope="0.00"/>
        <vehicle id="f_5.2" x="307.071660" y="1.600000" angle="270.00" type="AggressiveDriver" speed="16.22" pos="92.93" lane="-E2_1" slope="0.00"/>
        <vehicle id="f_5.3" x="317.060053" y="4.800000" angle="270.00" type="DefensiveDriver" speed="2.18" pos="82.94" lane="-E2_0" slope="0.00"/>
    </timestep>
    <timestep time="8.00">
        <vehicle id="f_0.0" x="43.860804" y="-4.800000" angle="90.00" type="Aggressivejunctiondriver" speed="14.26" pos="51.73" lane="E4_1" slope="0.00"/>
        <vehicle id="f_0.1" x="-53.880800" y="-1.600000" angle="90.00" type="DefensiveDriver" speed="8.93" pos="46.12" lane="E0_1" slope="0.00"/>
        <vehicle id="f_0.2" x="-13.707776" y="-1.600000" angle="90.00" type="CautiousDriver" speed="4.26" pos="86.29" lane="E0_1" slope="0.00"/>
        <vehicle id="f_0.3" x="-2.560915" y="-4.800000" angle="90.00" type="SchoolBus" speed="6.53" pos="5.31" lane="E4_1" slope="0.00"/>
        <vehicle id="f_0.4" x="-40.385055" y="-4.800000" angle="90.00" type="CautiousDriver" speed="3.41" pos="59.61" lane="E0_0" slope="0.00"/>
        <vehicle id="f_0.5" x="-71.985975" y="-4.800000" angle="90.00" type="RecklessDriver" speed="8.63" pos="28.01" lane="E0_0" slope="0.00"/>
        <vehicle id="f_1.0" x="22.412680" y="-4.800000" angle="90.00" type="Aggressivejunctiondriver" speed="12.67" pos="30.28" lane="E4_1" slope="0.00"/>
        <vehicle id="f_1.1" x="-77.918748" y="-69.386569" angle="33.37" type="CautiousDriver" speed="3.81" pos="37.71" lane="E5_0" slope="0.00"/>
        <vehicle id="f_1.2" x="-81.640066" y="-75.001022" angle="33.19" type="Motorcycle" speed="6.19" pos="30.97" lane="E5_0" slope="0.00"/>
        <vehicle id="f_1.3" x="-63.558606" y="-47.582189" angle="33.37" type="DefensiveDriver" speed="5.86" pos="63.82" lane="E5_0" slope="0.00"/>
        <vehicle id="f_1.4" x="-51.811169" y="-29.744927" angle="33.37" type="CautiousDriver" speed="1.43" pos="85.18" lane="E5_0" slope="0.00"/>
        <vehicle id="f_1.5" x="-29.405339" y="-8.096631" angle="65.33" type="AggressiveDriver" speed="5.30" pos="117.13" lane="E5_0" slope="0.00"/>
        <vehicle id="f_1.6" x="-16.476012" y="-8.079172" angle="90.11" type="RecklessDriver" speed="5.72" pos="130.06" lane="E5_0" slope="0.00"/>
        <vehicle id="f_1.7" x="-70.932305" y="-58.778382" angle="33.37" type="SportsCarDriver" speed="1.51" pos="50.41" lane="E5_0" slope="0.00"/>
        <vehicle id="f_2.0" x="37.159352" y="-1.600000" angle="90.00" type="HumanLikeDriver" speed="11.41" pos="45.03" lane="E4_2" slope="0.00"/>
        <vehicle id="f_3.0" x="335.922883" y="4.800000" angle="270.00" type="ElderlyDriver" speed="4.19" pos="64.08" lane="-E2_0" slope="0.00"/>
        <vehicle id="f_3.1" x="365.739974" y="4.800000" angle="270.00" type="CautiousDriver" speed="5.42" pos="34.26" lane="-E2_0" slope="0.00"/>
        <vehicle id="f_3.2" x="324.794257" y="4.800000" angle="270.00" type="SchoolBus" speed="3.77" pos="75.21" lane="-E2_0" slope="0.00"/>
        <vehicle id="f_3.3" x="390.811021" y="1.600000" angle="270.00" type="EcoFriendlyDriver" speed="4.77" pos="9.19" lane="-E2_1" slope="0.00"/>
        <vehicle id="f_4.0" x="212.385565" y="4.800000" angle="235.27" type="AggressiveDriver" speed="11.91" pos="1.68" lane="-E1_1" slope="0.00"/>
        <vehicle id="f_4.1" x="198.252194" y="4.800000" angle="270.00" type="DeliveryTruck" speed="11.44" pos="15.82" lane="-E1_1" slope="0.00"/>
        <vehicle id="f_4.2" x="267.325313" y="57.535719" angle="215.86" type="CautiousDriver" speed="1.46" pos="53.55" lane="E7_0" slope="0.00"/>
        <vehicle id="f_4.3" x="238.622308" y="17.827490" angle="215.86" type="RecklessDriver" speed="4.43" pos="102.55" lane="E7_0" slope="0.00"/>
        <vehicle id="f_4.4" x="261.919562" y="50.057311" angle="215.86" type="DefensiveDriver" speed="1.13" pos="62.78" lane="E7_0" slope="0.00"/>
        <vehicle id="f_4.5" x="295.510593" y="96.527058" angle="215.83" type="AggressiveLanechangingdriver" speed="1.51" pos="5.44" lane="E7_0" slope="0.00"/>
        <vehicle id="f_5.0" x="323.921944" y="1.600000" angle="270.00" type="HumanLikeDriver" speed="12.79" pos="76.08" lane="-E2_1" slope="0.00"/>
        <vehicle id="f_5.1" x="361.331539" y="1.652433" angle="269.52" type="AggressiveLanechangingdriver" speed="8.93" pos="38.67" lane="-E2_1" slope="0.00"/>
        <vehicle id="f_5.2" x="289.500307" y="4.800000" angle="270.00" type="AggressiveDriver" speed="17.91" pos="10.85" lane="-E3_1" slope="0.00"/>
        <vehicle id="f_5.3" x="313.381474" y="4.800000" angle="270.00" type="DefensiveDriver" speed="3.68" pos="86.62" lane="-E2_0" slope="0.00"/>
    </timestep>
    <timestep time="9.00">
        <vehicle id="f_0.0" x="59.713071" y="-1.600000" angle="90.00" type="Aggressivejunctiondriver" speed="15.85" pos="67.58" lane="E4_2" slope="0.00"/>
        <vehicle id="f_0.1" x="-44.035771" y="-1.600000" angle="90.00" type="DefensiveDriver" speed="9.85" pos="55.96" lane="E0_1" slope="0.00"/>
        <vehicle id="f_0.2" x="-8.455523" y="-1.600000" angle="90.00" type="CautiousDriver" speed="5.25" pos="3.32" lane=":J1_4_1" slope="0.00"/>
        <vehicle id="f_0.3" x="5.242323" y="-1.600000" angle="90.00" type="SchoolBus" speed="7.80" pos="13.11" lane="E4_2" slope="0.00"/>
        <vehicle id="f_0.4" x="-35.873220" y="-4.800000" angle="90.00" type="CautiousDriver" speed="4.51" pos="64.13" lane="E0_0" slope="0.00"/>
        <vehicle id="f_0.5" x="-60.234361" y="-4.800000" angle="90.00" type="RecklessDriver" speed="11.75" pos="39.77" lane="E0_0" slope="0.00"/>
        <vehicle id="f_1.0" x="36.610284" y="-4.800000" angle="90.00" type="Aggressivejunctiondriver" speed="14.20" pos="44.48" lane="E4_1" slope="0.00"/>
        <vehicle id="f_1.1" x="-75.905322" y="-66.329391" angle="33.37" type="CautiousDriver" speed="3.66" pos="41.37" lane="E5_0" slope="0.00"/>
        <vehicle id="f_1.2" x="-81.640066" y="-75.001022" angle="33.19" type="Motorcycle" speed="0.00" pos="30.97" lane="E5_0" slope="0.00"/>
        <vehicle id="f_1.3" x="-60.163694" y="-42.427368" angle="33.37" type="DefensiveDriver" speed="6.17" pos="69.99" lane="E5_0" slope="0.00"/>
        <vehicle id="f_1.4" x="-50.479337" y="-27.722679" angle="33.37" type="CautiousDriver" speed="2.42" pos="87.60" lane="E5_0" slope="0.00"/>
        <vehicle id="f_1.5" x="-21.134897" y="-8.068332" angle="89.80" type="AggressiveDriver" speed="8.27" pos="125.40" lane="E5_0" slope="0.00"/>
        <vehicle id="f_1.6" x="-6.830198" y="-4.800000" angle="56.37" type="RecklessDriver" speed="9.66" pos="1.04" lane="E4_1" slope="0.00"/>
        <vehicle id="f_1.7" x="-67.630129" y="-53.764371" angle="33.37" type="SportsCarDriver" speed="6.00" pos="56.41" lane="E5_0" slope="0.00"/>
        <vehicle id="f_2.0" x="48.637096" y="-1.600000" angle="90.00" type="HumanLikeDriver" speed="11.48" pos="56.51" lane="E4_2" slope="0.00"/>
        <vehicle id="f_3.0" x="331.702318" y="1.600000" angle="270.00" type="ElderlyDriver" speed="4.22" pos="68.30" lane="-E2_1" slope="0.00"/>
        <vehicle id="f_3.1" x="359.388155" y="1.600000" angle="270.00" type="CautiousDriver" speed="6.35" pos="40.61" lane="-E2_1" slope="0.00"/>
        <vehicle id="f_3.2" x="320.330931" y="4.800000" angle="270.00" type="SchoolBus" speed="4.46" pos="79.67" lane="-E2_0" slope="0.00"/>
        <vehicle id="f_3.3" x="384.153378" y="4.800000" angle="270.00" type="EcoFriendlyDriver" speed="6.66" pos="15.85" lane="-E2_0" slope="0.00"/>
        <vehicle id="f_4.0" x="198.629372" y="1.600000" angle="270.00" type="AggressiveDriver" speed="13.76" pos="15.44" lane="-E1_2" slope="0.00"/>
        <vehicle id="f_4.1" x="184.327355" y="1.600000" angle="270.00" type="DeliveryTruck" speed="13.92" pos="29.74" lane="-E1_2" slope="0.00"/>
        <vehicle id="f_4.2" x="266.378108" y="56.225339" angle="215.86" type="CautiousDriver" speed="1.62" pos="55.17" lane="E7_0" slope="0.00"/>
        <vehicle id="f_4.3" x="231.891358" y="13.235954" angle="244.74" type="RecklessDriver" speed="8.38" pos="110.93" lane="E7_0" slope="0.00"/>
        <vehicle id="f_4.4" x="260.797086" y="48.504458" angle="215.86" type="DefensiveDriver" speed="1.92" pos="64.70" lane="E7_0" slope="0.00"/>