<fcd-export xmlns:xsi="http://www.w3.org/2001/XMLSchema-instance" xsi:noNamespaceSchemaLocation="http://sumo.dlr.de/xsd/fcd_file.xsd">
    <timestep time="0.00" />
    <timestep time="0.50" />
    <timestep time="1.00" />
    <timestep time="1.50" />
    <timestep time="2.00" />
    <timestep time="2.50" />
    <timestep time="3.00" />
    <timestep time="3.50" />
    <timestep time="4.00" />
    <timestep time="4.50" />
    <timestep time="5.00" />
    <timestep time="5.50" />
    <timestep time="6.00" />
    <timestep time="6.50" />
    <timestep time="7.00" />
    <timestep time="7.50" />
    <timestep time="8.00" />
    <timestep time="8.50" />
    <timestep time="9.00" />
    <timestep time="9.50" />
    <timestep time="10.00" />
    <timestep time="10.50" />
    <timestep time="11.00" />
    <timestep time="11.50" />
    <timestep time="12.00" />
    <timestep time="12.50" />
    <timestep time="13.00" />
    <timestep time="13.50" />
    <timestep time="14.00" />
    <timestep time="14.50" />
    <timestep time="15.00" />
    <timestep time="15.50" />
    <timestep time="16.00" />
    <timestep time="16.50" />
    <timestep time="17.00" />
    <timestep time="17.50" />
    <timestep time="18.00" />
    <timestep time="18.50" />
    <timestep time="19.00" />
    <timestep time="19.50" />
    <timestep time="20.00" />
    <timestep time="20.50" />
    <timestep time="21.00" />
    <timestep time="21.50" />
    <timestep time="22.00" />
    <timestep time="22.50" />
    <timestep time="23.00" />
    <timestep time="23.50" />
    <timestep time="24.00" />
    <timestep time="24.50" />
    <timestep time="25.00">
        <vehicle id="veh1" x="-81.190014" y="42.962643" type="veh_passenger" speed="23.67" lane="319032606_0" node_id="14423" way_id="15082" lanelet_id="15753" />
    </timestep>
    <timestep time="25.50">
        <vehicle id="veh1" x="-81.189983" y="42.962539" type="veh_passenger" speed="23.53" lane="319032606_0" node_id="14446" way_id="15082" lanelet_id="15753" />
    </timestep>
    <timestep time="26.00">
        <vehicle id="veh1" x="-81.189953" y="42.962436" type="veh_passenger" speed="23.33" lane="319032606_0" node_id="15142" way_id="15752" lanelet_id="15753" />
    </timestep>
    <timestep time="26.50">
        <vehicle id="veh1" x="-81.189922" y="42.962334" type="veh_passenger" speed="23.33" lane="319032606_0" node_id="14493" way_id="15082" lanelet_id="15753" />
    </timestep>
    <timestep time="27.00">
        <vehicle id="veh1" x="-81.189892" y="42.962230" type="veh_passenger" speed="23.54" lane="319032606_0" node_id="15188" way_id="15752" lanelet_id="15753" />
    </timestep>
    <timestep time="27.50">
        <vehicle id="veh1" x="-81.189861" y="42.962126" type="veh_passenger" speed="23.64" lane="319032606_0" node_id="15212" way_id="15752" lanelet_id="15753" />
    </timestep>
    <timestep time="28.00">
        <vehicle id="veh1" x="-81.189830" y="42.962023" type="veh_passenger" speed="23.46" lane="319032606_0" node_id="14563" way_id="15082" lanelet_id="15753" />
    </timestep>
    <timestep time="28.50">
        <vehicle id="veh1" x="-81.189800" y="42.961921" type="veh_passenger" speed="23.27" lane="319032606_0" node_id="14587" way_id="15082" lanelet_id="15753" />
    </timestep>
    <timestep time="29.00">
        <vehicle id="veh1" x="-81.189769" y="42.961818" type="veh_passenger" speed="23.40" lane="319032606_0" node_id="14610" way_id="15082" lanelet_id="15753" />
    </timestep>
    <timestep time="29.50">
        <vehicle id="veh1" x="-81.189739" y="42.961715" type="veh_passenger" speed="23.32" lane="319032606_0" node_id="15306" way_id="15752" lanelet_id="15753" />
    </timestep>
    <timestep time="30.00">
        <vehicle id="veh1" x="-81.189708" y="42.961612" type="veh_passenger" speed="23.50" lane="319032606_0" node_id="14657" way_id="15082" lanelet_id="15753" />
    </timestep>
    <timestep time="30.50">
        <vehicle id="veh1" x="-81.189678" y="42.961508" type="veh_passenger" speed="23.55" lane="319032606_0" node_id="15353" way_id="15752" lanelet_id="15753" />
    </timestep>
    <timestep time="31.00">
        <vehicle id="veh1" x="-81.189647" y="42.961405" type="veh_passenger" speed="23.54" lane="319032606_0" node_id="15376" way_id="15752" lanelet_id="15753" />
    </timestep>
    <timestep time="31.50">
        <vehicle id="veh1" x="-81.189617" y="42.961303" type="veh_passenger" speed="23.07" lane="319032606_0" node_id="15399" way_id="15752" lanelet_id="15753" />
    </timestep>
    <timestep time="32.00">
        <vehicle id="veh1" x="-81.189586" y="42.961200" type="veh_passenger" speed="23.51" lane="319032606_0" node_id="14751" way_id="15082" lanelet_id="15753" />
    </timestep>
    <timestep time="32.50">
        <vehicle id="veh1" x="-81.189556" y="42.961097" type="veh_passenger" speed="23.27" lane="319032606_0" node_id="15446" way_id="15752" lanelet_id="15753" />
    </timestep>
    <timestep time="33.00">
        <vehicle id="veh1" x="-81.189525" y="42.960996" type="veh_passenger" speed="23.11" lane="319032606_0" node_id="14797" way_id="15082" lanelet_id="15753" />
    </timestep>
    <timestep time="33.50">
        <vehicle id="veh1" x="-81.189495" y="42.960894" type="veh_passenger" speed="23.08" lane="319032606_0" node_id="14820" way_id="15082" lanelet_id="15753" />
    </timestep>
    <timestep time="34.00">
        <vehicle id="veh1" x="-81.189465" y="42.960792" type="veh_passenger" speed="23.16" lane="319032606_0" node_id="14843" way_id="15082" lanelet_id="15753" />
    </timestep>
    <timestep time="34.50">
        <vehicle id="veh1" x="-81.189434" y="42.960689" type="veh_passenger" speed="23.54" lane="319032606_0" node_id="14867" way_id="15082" lanelet_id="15753" />
    </timestep>
    <timestep time="35.00">
        <vehicle id="veh1" x="-81.189404" y="42.960587" type="veh_passenger" speed="23.17" lane="319032606_0" node_id="14890" way_id="15082" lanelet_id="15753" />
    </timestep>
    <timestep time="35.50">
        <vehicle id="veh1" x="-81.189374" y="42.960485" type="veh_passenger" speed="23.04" lane="319032606_0" node_id="14913" way_id="15082" lanelet_id="15753" />
    </timestep>
    <timestep time="36.00">
        <vehicle id="veh1" x="-81.189344" y="42.960384" type="veh_passenger" speed="23.04" lane="319032606_0" node_id="14936" way_id="15082" lanelet_id="15753" />
    </timestep>
    <timestep time="36.50">
        <vehicle id="veh1" x="-81.189313" y="42.960281" type="veh_passenger" speed="23.42" lane="319032606_0" node_id="14959" way_id="15082" lanelet_id="15753" />
    </timestep>
    <timestep time="37.00">
        <vehicle id="veh1" x="-81.189283" y="42.960179" type="veh_passenger" speed="23.16" lane="319032606_0" node_id="14983" way_id="15082" lanelet_id="15753" />
    </timestep>
    <timestep time="37.50">
        <vehicle id="veh1" x="-81.189253" y="42.960077" type="veh_passenger" speed="23.10" lane="319032606_0" node_id="15678" way_id="15752" lanelet_id="15753" />
    </timestep>
    <timestep time="38.00">
        <vehicle id="veh1" x="-81.189223" y="42.959976" type="veh_passenger" speed="23.13" lane="319032606_0" node_id="15701" way_id="15752" lanelet_id="15753" />
    </timestep>
    <timestep time="38.50">
        <vehicle id="veh1" x="-81.189192" y="42.959872" type="veh_passenger" speed="23.66" lane="319032606_0" node_id="15052" way_id="15082" lanelet_id="15753" />
    </timestep>
    <timestep time="39.00">
        <vehicle id="veh1" x="-81.189162" y="42.959769" type="veh_passenger" speed="23.27" lane=":300312840_1_0" node_id="15747" way_id="15752" lanelet_id="15753" />
    </timestep>
    <timestep time="39.50">
        <vehicle id="veh1" x="-81.189132" y="42.959666" type="veh_passenger" speed="23.53" lane="141818140#0-AddedOnRampEdge_1" node_id="6715" way_id="6887" lanelet_id="7079" />
    </timestep>
    <timestep time="40.00">
        <vehicle id="veh1" x="-81.189103" y="42.959562" type="veh_passenger" speed="23.53" lane="141818140#0-AddedOnRampEdge_1" node_id="6931" way_id="7078" lanelet_id="7269" />
    </timestep>
    <timestep time="40.50">
        <vehicle id="veh1" x="-81.189073" y="42.959459" type="veh_passenger" speed="23.33" lane="141818140#0-AddedOnRampEdge_1" node_id="6761" way_id="6887" lanelet_id="7079" />
    </timestep>
    <timestep time="41.00">
        <vehicle id="veh1" x="-81.189044" y="42.959356" type="veh_passenger" speed="23.33" lane="141818140#0-AddedOnRampEdge_1" node_id="6978" way_id="7078" lanelet_id="7269" />
    </timestep>
    <timestep time="41.50">
        <vehicle id="veh1" x="-81.189015" y="42.959253" type="veh_passenger" speed="23.54" lane="141818140#0-AddedOnRampEdge_1" node_id="7001" way_id="7078" lanelet_id="7269" />
    </timestep>
    <timestep time="42.00">
        <vehicle id="veh1" x="-81.188985" y="42.959148" type="veh_passenger" speed="23.64" lane="141818140#0-AddedOnRampEdge_1" node_id="7025" way_id="7078" lanelet_id="7269" />
    </timestep>
    <timestep time="42.50">
        <vehicle id="veh1" x="-81.188956" y="42.959045" type="veh_passenger" speed="23.46" lane="141818140#0-AddedOnRampEdge_1" node_id="7048" way_id="7078" lanelet_id="7269" />
    </timestep>
    <timestep time="43.00">
        <vehicle id="veh1" x="-81.188926" y="42.958942" type="veh_passenger" speed="23.27" lane="141818140#0-AddedOnRampEdge_1" node_id="6878" way_id="6887" lanelet_id="7079" />
    </timestep>
    <timestep time="43.50">
        <vehicle id="veh1" x="-81.188897" y="42.958839" type="veh_passenger" speed="23.40" lane="141818140#0_0" node_id="19899" way_id="21871" lanelet_id="21872" />
    </timestep>
    <timestep time="44.00">
        <vehicle id="veh1" x="-81.188868" y="42.958736" type="veh_passenger" speed="23.53" lane="141818140#0_0" node_id="19922" way_id="21871" lanelet_id="21872" />
    </timestep>
    <timestep time="44.50">
        <vehicle id="veh1" x="-81.188838" y="42.958633" type="veh_passenger" speed="23.33" lane="141818140#0_0" node_id="17953" way_id="19881" lanelet_id="21872" />
    </timestep>
    <timestep time="45.00">
        <vehicle id="veh1" x="-81.188809" y="42.958530" type="veh_passenger" speed="23.33" lane="141818140#0_0" node_id="17977" way_id="19881" lanelet_id="21872" />
    </timestep>
    <timestep time="45.50">
        <vehicle id="veh1" x="-81.188780" y="42.958426" type="veh_passenger" speed="23.54" lane="141818140#0_0" node_id="19992" way_id="21871" lanelet_id="21872" />
    </timestep>
    <timestep time="46.00">
        <vehicle id="veh1" x="-81.188750" y="42.958322" type="veh_passenger" speed="23.64" lane="141818140#0_0" node_id="20016" way_id="21871" lanelet_id="21872" />
    </timestep>
    <timestep time="46.50">
        <vehicle id="veh1" x="-81.188721" y="42.958219" type="veh_passenger" speed="23.46" lane="141818140#0_0" node_id="20039" way_id="21871" lanelet_id="21872" />
    </timestep>
    <timestep time="47.00">
        <vehicle id="veh1" x="-81.188691" y="42.958116" type="veh_passenger" speed="23.27" lane="141818140#0_0" node_id="18071" way_id="19881" lanelet_id="21872" />
    </timestep>
    <timestep time="47.50">
        <vehicle id="veh1" x="-81.188662" y="42.958013" type="veh_passenger" speed="23.40" lane="141818140#0_0" node_id="18094" way_id="19881" lanelet_id="21872" />
    </timestep>
    <timestep time="48.00">
        <vehicle id="veh1" x="-81.188633" y="42.957910" type="veh_passenger" speed="23.32" lane="141818140#0_0" node_id="20109" way_id="21871" lanelet_id="21872" />
    </timestep>
    <timestep time="48.50">
        <vehicle id="veh1" x="-81.188603" y="42.957806" type="veh_passenger" speed="23.50" lane="141818140#0_0" node_id="18141" way_id="19881" lanelet_id="21872" />
    </timestep>
    <timestep time="49.00">
        <vehicle id="veh1" x="-81.188574" y="42.957703" type="veh_passenger" speed="23.55" lane="141818140#0_0" node_id="20156" way_id="21871" lanelet_id="21872" />
    </timestep>
    <timestep time="49.50">
        <vehicle id="veh1" x="-81.188544" y="42.957599" type="veh_passenger" speed="23.54" lane="141818140#0_0" node_id="18188" way_id="19881" lanelet_id="21872" />
    </timestep>
    <timestep time="50.00">
        <vehicle id="veh1" x="-81.188515" y="42.957497" type="veh_passenger" speed="23.07" lane="141818140#0_0" node_id="18211" way_id="19881" lanelet_id="21872" />
    </timestep>
    <timestep time="50.50">
        <vehicle id="veh1" x="-81.188486" y="42.957394" type="veh_passenger" speed="23.51" lane="141818140#0_0" node_id="20226" way_id="21871" lanelet_id="21872" />
    </timestep>
    <timestep time="51.00">
        <vehicle id="veh1" x="-81.188457" y="42.957291" type="veh_passenger" speed="23.27" lane="141818140#0_0" node_id="20250" way_id="21871" lanelet_id="21872" />
    </timestep>
    <timestep time="51.50">
        <vehicle id="veh1" x="-81.188428" y="42.957189" type="veh_passenger" speed="23.11" lane="141818140#0_0" node_id="20273" way_id="21871" lanelet_id="21872" />
    </timestep>
    <timestep time="52.00">
        <vehicle id="veh1" x="-81.188399" y="42.957088" type="veh_passenger" speed="23.08" lane="141818140#0_0" node_id="20296" way_id="21871" lanelet_id="21872" />
    </timestep>
    <timestep time="52.50">
        <vehicle id="veh1" x="-81.188370" y="42.956985" type="veh_passenger" speed="23.16" lane="141818140#0_0" node_id="20319" way_id="21871" lanelet_id="21872" />
    </timestep>
    <timestep time="53.00">
        <vehicle id="veh1" x="-81.188340" y="42.956882" type="veh_passenger" speed="23.54" lane="141818140#0_0" node_id="18350" way_id="19881" lanelet_id="21872" />
    </timestep>
    <timestep time="53.50">
        <vehicle id="veh1" x="-81.188311" y="42.956780" type="veh_passenger" speed="23.17" lane="141818140#0_0" node_id="18374" way_id="19881" lanelet_id="21872" />
    </timestep>
    <timestep time="54.00">
        <vehicle id="veh1" x="-81.188282" y="42.956678" type="veh_passenger" speed="23.04" lane="141818140#0_0" node_id="18397" way_id="19881" lanelet_id="21872" />
    </timestep>
    <timestep time="54.50">
        <vehicle id="veh1" x="-81.188254" y="42.956576" type="veh_passenger" speed="23.04" lane="141818140#0_0" node_id="20412" way_id="21871" lanelet_id="21872" />
    </timestep>
    <timestep time="55.00">
        <vehicle id="veh1" x="-81.188224" y="42.956473" type="veh_passenger" speed="23.42" lane="141818140#0_0" node_id="18443" way_id="19881" lanelet_id="21872" />
    </timestep>
    <timestep time="55.50">
        <vehicle id="veh1" x="-81.188195" y="42.956371" type="veh_passenger" speed="23.16" lane="141818140#0_0" node_id="18466" way_id="19881" lanelet_id="21872" />
    </timestep>
    <timestep time="56.00">
        <vehicle id="veh1" x="-81.188166" y="42.956269" type="veh_passenger" speed="23.10" lane="141818140#0_0" node_id="18489" way_id="19881" lanelet_id="21872" />
    </timestep>
    <timestep time="56.50">
        <vehicle id="veh1" x="-81.188137" y="42.956167" type="veh_passenger" speed="23.13" lane="141818140#0_0" node_id="18513" way_id="19881" lanelet_id="21872" />
    </timestep>
    <timestep time="57.00">
        <vehicle id="veh1" x="-81.188108" y="42.956063" type="veh_passenger" speed="23.66" lane="141818140#0_0" node_id="20529" way_id="21871" lanelet_id="21872" />
    </timestep>
    <timestep time="57.50">
        <vehicle id="veh1" x="-81.188078" y="42.955961" type="veh_passenger" speed="23.27" lane="141818140#0_0" node_id="20550" way_id="21871" lanelet_id="21872" />
    </timestep>
    <timestep time="58.00">
        <vehicle id="veh1" x="-81.188047" y="42.955857" type="veh_passenger" speed="23.61" lane="141818140#0_0" node_id="18583" way_id="19881" lanelet_id="21872" />
    </timestep>
    <timestep time="58.50">
        <vehicle id="veh1" x="-81.188017" y="42.955754" type="veh_passenger" speed="23.31" lane="141818140#0_0" node_id="20598" way_id="21871" lanelet_id="21872" />
    </timestep>
    <timestep time="59.00">
        <vehicle id="veh1" x="-81.187987" y="42.955653" type="veh_passenger" speed="23.06" lane="141818140#0_0" node_id="18629" way_id="19881" lanelet_id="21872" />
    </timestep>
    <timestep time="59.50">
        <vehicle id="veh1" x="-81.187957" y="42.955550" type="veh_passenger" speed="23.20" lane="141818140#0_0" node_id="18653" way_id="19881" lanelet_id="21872" />
    </timestep>
    <timestep time="60.00">
        <vehicle id="veh1" x="-81.187927" y="42.955448" type="veh_passenger" speed="23.27" lane="141818140#0_0" node_id="18676" way_id="19881" lanelet_id="21872" />
    </timestep>
    <timestep time="60.50">
        <vehicle id="veh1" x="-81.187897" y="42.955345" type="veh_passenger" speed="23.41" lane="141818140#0_0" node_id="20691" way_id="21871" lanelet_id="21872" />
    </timestep>
    <timestep time="61.00">
        <vehicle id="veh1" x="-81.187867" y="42.955242" type="veh_passenger" speed="23.40" lane="141818140#0_0" node_id="20715" way_id="21871" lanelet_id="21872" />
    </timestep>
    <timestep time="61.50">
        <vehicle id="veh1" x="-81.187836" y="42.955139" type="veh_passenger" speed="23.45" lane="141818140#0_0" node_id="18746" way_id="19881" lanelet_id="21872" />
    </timestep>
    <timestep time="62.00">
        <vehicle id="veh1" x="-81.187806" y="42.955037" type="veh_passenger" speed="23.05" lane="141818140#0_0" node_id="18769" way_id="19881" lanelet_id="21872" />
    </timestep>
    <timestep time="62.50">
        <vehicle id="veh1" x="-81.187776" y="42.954934" type="veh_passenger" speed="23.46" lane="141818140#0_0" node_id="18793" way_id="19881" lanelet_id="21872" />
    </timestep>
    <timestep time="63.00">
        <vehicle id="veh1" x="-81.187746" y="42.954832" type="veh_passenger" speed="23.16" lane="141818140#0_0" node_id="18816" way_id="19881" lanelet_id="21872" />
    </timestep>
    <timestep time="63.50">
        <vehicle id="veh1" x="-81.187716" y="42.954728" type="veh_passenger" speed="23.59" lane="141818140#0_0" node_id="20831" way_id="21871" lanelet_id="21872" />
    </timestep>
    <timestep time="64.00">
        <vehicle id="veh1" x="-81.187686" y="42.954627" type="veh_passenger" speed="23.07" lane="141818140#0_0" node_id="20854" way_id="21871" lanelet_id="21872" />
    </timestep>
    <timestep time="64.50">
        <vehicle id="veh1" x="-81.187655" y="42.954523" type="veh_passenger" speed="23.62" lane="141818140#0_0" node_id="18886" way_id="19881" lanelet_id="21872" />
    </timestep>
    <timestep time="65.00">
        <vehicle id="veh1" x="-81.187625" y="42.954420" type="veh_passenger" speed="23.38" lane="141818140#0_0" node_id="18909" way_id="19881" lanelet_id="21872" />
    </timestep>
    <timestep time="65.50">
        <vehicle id="veh1" x="-81.187595" y="42.954317" type="veh_passenger" speed="23.47" lane="141818140#0_0" node_id="20925" way_id="21871" lanelet_id="21872" />
    </timestep>
    <timestep time="66.00">
        <vehicle id="veh1" x="-81.187565" y="42.954215" type="veh_passenger" speed="23.13" lane="141818140#0_0" node_id="20948" way_id="21871" lanelet_id="21872" />
    </timestep>
    <timestep time="66.50">
        <vehicle id="veh1" x="-81.187535" y="42.954113" type="veh_passenger" speed="23.25" lane="141818140#0_0" node_id="20971" way_id="21871" lanelet_id="21872" />
    </timestep>
    <timestep time="67.00">
        <vehicle id="veh1" x="-81.187505" y="42.954011" type="veh_passenger" speed="23.12" lane="141818140#0_0" node_id="20994" way_id="21871" lanelet_id="21872" />
    </timestep>
    <timestep time="67.50">
        <vehicle id="veh1" x="-81.187475" y="42.953908" type="veh_passenger" speed="23.38" lane="141818140#0_0" node_id="21018" way_id="21871" lanelet_id="21872" />
    </timestep>
    <timestep time="68.00">
        <vehicle id="veh1" x="-81.187444" y="42.953805" type="veh_passenger" speed="23.27" lane="141818140#0_0" node_id="19049" way_id="19881" lanelet_id="21872" />
    </timestep>
    <timestep time="68.50">
        <vehicle id="veh1" x="-81.187414" y="42.953702" type="veh_passenger" speed="23.45" lane="141818140#0_0" node_id="19072" way_id="19881" lanelet_id="21872" />
    </timestep>
    <timestep time="69.00">
        <vehicle id="veh1" x="-81.187384" y="42.953600" type="veh_passenger" speed="23.25" lane="141818140#0_0" node_id="19096" way_id="19881" lanelet_id="21872" />
    </timestep>
    <timestep time="69.50">
        <vehicle id="veh1" x="-81.187354" y="42.953497" type="veh_passenger" speed="23.30" lane="141818140#0_0" node_id="21111" way_id="21871" lanelet_id="21872" />
    </timestep>
    <timestep time="70.00">
        <vehicle id="veh1" x="-81.187324" y="42.953396" type="veh_passenger" speed="23.07" lane="141818140#0_0" node_id="19142" way_id="19881" lanelet_id="21872" />
    </timestep>
    <timestep time="70.50">
        <vehicle id="veh1" x="-81.187294" y="42.953294" type="veh_passenger" speed="23.04" lane="141818140#0_0" node_id="19165" way_id="19881" lanelet_id="21872" />
    </timestep>
    <timestep time="71.00">
        <vehicle id="veh1" x="-81.187264" y="42.953192" type="veh_passenger" speed="23.34" lane="141818140#0_0" node_id="19188" way_id="19881" lanelet_id="21872" />
    </timestep>
    <timestep time="71.50">
        <vehicle id="veh1" x="-81.187234" y="42.953088" type="veh_passenger" speed="23.47" lane="141818140#0_0" node_id="21204" way_id="21871" lanelet_id="21872" />
    </timestep>
    <timestep time="72.00">
        <vehicle id="veh1" x="-81.187204" y="42.952986" type="veh_passenger" speed="23.18" lane="141818140#0_0" node_id="21227" way_id="21871" lanelet_id="21872" />
    </timestep>
    <timestep time="72.50">
        <vehicle id="veh1" x="-81.187173" y="42.952883" type="veh_passenger" speed="23.50" lane="141818140#0_0" node_id="19258" way_id="19881" lanelet_id="21872" />
    </timestep>
    <timestep time="73.00">
        <vehicle id="veh1" x="-81.187144" y="42.952781" type="veh_passenger" speed="23.15" lane="141818140#0_0" node_id="21274" way_id="21871" lanelet_id="21872" />
    </timestep>
    <timestep time="73.50">
        <vehicle id="veh1" x="-81.187113" y="42.952678" type="veh_passenger" speed="23.31" lane="141818140#0_0" node_id="19305" way_id="19881" lanelet_id="21872" />
    </timestep>
    <timestep time="74.00">
        <vehicle id="veh1" x="-81.187084" y="42.952577" type="veh_passenger" speed="23.09" lane="141818140#0_0" node_id="21320" way_id="21871" lanelet_id="21872" />
        <vehicle id="veh3" x="-81.184133" y="42.943711" type="veh_passenger" speed="28.17" lane="141818139_0" node_id="4476" way_id="5743" lanelet_id="5744" />
    </timestep>
    <timestep time="74.50">
        <vehicle id="veh1" x="-81.187053" y="42.952474" type="veh_passenger" speed="23.34" lane="141818140#0_0" node_id="19351" way_id="19881" lanelet_id="21872" />
        <vehicle id="veh3" x="-81.184170" y="42.943834" type="veh_passenger" speed="28.04" lane="141818139_0" node_id="4504" way_id="5743" lanelet_id="5744" />
    </timestep>
    <timestep time="75.00">
        <vehicle id="veh1" x="-81.187023" y="42.952371" type="veh_passenger" speed="23.53" lane="141818140#0_0" node_id="21367" way_id="21871" lanelet_id="21872" />
        <vehicle id="veh3" x="-81.184207" y="42.943957" type="veh_passenger" speed="27.84" lane="141818139_0" node_id="4532" way_id="5743" lanelet_id="5744" />
    </timestep>
    <timestep time="75.50">
        <vehicle id="veh1" x="-81.186992" y="42.952266" type="veh_passenger" speed="23.65" lane="141818140#0_0" node_id="19398" way_id="19881" lanelet_id="21872" />
        <vehicle id="veh3" x="-81.184244" y="42.944079" type="veh_passenger" speed="27.83" lane="141818139_0" node_id="4559" way_id="5743" lanelet_id="5744" />
    </timestep>
    <timestep time="76.00">
        <vehicle id="veh1" x="-81.186962" y="42.952165" type="veh_passenger" speed="23.17" lane="141818140#0_0" node_id="19421" way_id="19881" lanelet_id="21872" />
        <vehicle id="veh3" x="-81.184282" y="42.944202" type="veh_passenger" speed="28.04" lane="141818139_0" node_id="3305" way_id="4463" lanelet_id="5744" />
    </timestep>
    <timestep time="76.50">
        <vehicle id="veh1" x="-81.186933" y="42.952063" type="veh_passenger" speed="23.09" lane="141818140#0_0" node_id="21437" way_id="21871" lanelet_id="21872" />
        <vehicle id="veh3" x="-81.184319" y="42.944326" type="veh_passenger" speed="28.14" lane="141818139_0" node_id="4616" way_id="5743" lanelet_id="5744" />
    </timestep>
    <timestep time="77.00">
        <vehicle id="veh1" x="-81.186902" y="42.951961" type="veh_passenger" speed="23.22" lane="141818140#0_0" node_id="19468" way_id="19881" lanelet_id="21872" />
        <vehicle id="veh3" x="-81.184356" y="42.944449" type="veh_passenger" speed="27.97" lane="141818139_0" node_id="4644" way_id="5743" lanelet_id="5744" />
    </timestep>
    <timestep time="77.50">
        <vehicle id="veh1" x="-81.186872" y="42.951858" type="veh_passenger" speed="23.33" lane="141818140#0_0" node_id="19491" way_id="19881" lanelet_id="21872" />
        <vehicle id="veh3" x="-81.184393" y="42.944571" type="veh_passenger" speed="27.77" lane="141818139_0" node_id="4671" way_id="5743" lanelet_id="5744" />
    </timestep>
    <timestep time="78.00">
        <vehicle id="veh1" x="-81.186842" y="42.951754" type="veh_passenger" speed="23.54" lane="141818140#0_0" node_id="21507" way_id="21871" lanelet_id="21872" />
        <vehicle id="veh3" x="-81.184430" y="42.944694" type="veh_passenger" speed="27.90" lane="141818139_0" node_id="4699" way_id="5743" lanelet_id="5744" />
    </timestep>
    <timestep time="78.50">
        <vehicle id="veh1" x="-81.186812" y="42.951652" type="veh_passenger" speed="23.35" lane="141818140#0_0" node_id="21530" way_id="21871" lanelet_id="21872" />
        <vehicle id="veh3" x="-81.184467" y="42.944816" type="veh_passenger" speed="27.83" lane="141818139_0" node_id="4727" way_id="5743" lanelet_id="5744" />
    </timestep>
    <timestep time="79.00">
        <vehicle id="veh1" x="-81.186781" y="42.951548" type="veh_passenger" speed="23.61" lane="141818140#0_0" node_id="19562" way_id="19881" lanelet_id="21872" />
        <vehicle id="veh3" x="-81.184505" y="42.944939" type="veh_passenger" speed="28.00" lane="141818139_0" node_id="3473" way_id="4463" lanelet_id="5744" />
    </timestep>
    <timestep time="79.50">
        <vehicle id="veh1" x="-81.186751" y="42.951444" type="veh_passenger" speed="23.47" lane="141818140#0_0" node_id="21577" way_id="21871" lanelet_id="21872" />
        <vehicle id="veh3" x="-81.184542" y="42.945062" type="veh_passenger" speed="28.05" lane="141818139_0" node_id="3501" way_id="4463" lanelet_id="5744" />
    </timestep>
    <timestep time="80.00">
        <vehicle id="veh1" x="-81.186721" y="42.951342" type="veh_passenger" speed="23.18" lane="141818140#0_0" node_id="21600" way_id="21871" lanelet_id="21872" />
        <vehicle id="veh3" x="-81.184579" y="42.945186" type="veh_passenger" speed="28.04" lane="141818139_0" node_id="4811" way_id="5743" lanelet_id="5744" />
    </timestep>
    <timestep time="80.50">
        <vehicle id="veh1" x="-81.186690" y="42.951239" type="veh_passenger" speed="23.59" lane="141818140#0_0" node_id="19632" way_id="19881" lanelet_id="21872" />
        <vehicle id="veh3" x="-81.184616" y="42.945307" type="veh_passenger" speed="27.57" lane="141818139_0" node_id="3558" way_id="4463" lanelet_id="5744" />
    </timestep>
    <timestep time="81.00">
        <vehicle id="veh1" x="-81.186661" y="42.951137" type="veh_passenger" speed="23.07" lane="141818140#0_0" node_id="21647" way_id="21871" lanelet_id="21872" />
        <vehicle id="veh3" x="-81.184652" y="42.945430" type="veh_passenger" speed="28.01" lane="141818139_0" node_id="4865" way_id="5743" lanelet_id="5744" />
    </timestep>
    <timestep time="81.50">
        <vehicle id="veh1" x="-81.186630" y="42.951034" type="veh_passenger" speed="23.51" lane="141818140#0_0" node_id="19678" way_id="19881" lanelet_id="21872" />
        <vehicle id="veh3" x="-81.184688" y="42.945552" type="veh_passenger" speed="27.78" lane="141818139_0" node_id="3612" way_id="4463" lanelet_id="5744" />
    </timestep>
    <timestep time="82.00">
        <vehicle id="veh1" x="-81.186600" y="42.950931" type="veh_passenger" speed="23.38" lane="141818140#0_0" node_id="21694" way_id="21871" lanelet_id="21872" />
        <vehicle id="veh3" x="-81.184723" y="42.945674" type="veh_passenger" speed="27.61" lane="141818139_0" node_id="3640" way_id="4463" lanelet_id="5744" />
    </timestep>
    <timestep time="82.50">
        <vehicle id="veh1" x="-81.186570" y="42.950828" type="veh_passenger" speed="23.29" lane="141818140#0_0" node_id="21717" way_id="21871" lanelet_id="21872" />
        <vehicle id="veh3" x="-81.184758" y="42.945795" type="veh_passenger" speed="27.58" lane="141818139_0" node_id="3668" way_id="4463" lanelet_id="5744" />
    </timestep>
    <timestep time="83.00">
        <vehicle id="veh1" x="-81.186540" y="42.950727" type="veh_passenger" speed="23.07" lane="141818140#0_0" node_id="19748" way_id="19881" lanelet_id="21872" />
        <vehicle id="veh3" x="-81.184793" y="42.945917" type="veh_passenger" speed="27.67" lane="141818139_0" node_id="4977" way_id="5743" lanelet_id="5744" />
    </timestep>
    <timestep time="83.50">
        <vehicle id="veh1" x="-81.186510" y="42.950624" type="veh_passenger" speed="23.41" lane="141818140#0_0" node_id="21763" way_id="21871" lanelet_id="21872" />
        <vehicle id="veh3" x="-81.184829" y="42.946041" type="veh_passenger" speed="28.04" lane="141818139_0" node_id="3723" way_id="4463" lanelet_id="5744" />
    </timestep>
    <timestep time="84.00">
        <vehicle id="veh1" x="-81.186480" y="42.950522" type="veh_passenger" speed="23.05" lane="141818140#0_0" node_id="21787" way_id="21871" lanelet_id="21872" />
        <vehicle id="veh3" x="-81.184864" y="42.946163" type="veh_passenger" speed="27.67" lane="141818139_0" node_id="5033" way_id="5743" lanelet_id="5744" />
    </timestep>
    <timestep time="84.50">