<?xml version="1.0" encoding="UTF-8"?>

<!-- generated on 2023-10-24 15:13:43 by Eclipse SUMO GUI Version 1.18.0
<configuration xmlns:xsi="http://www.w3.org/2001/XMLSchema-instance" xsi:noNamespaceSchemaLocation="http://sumo.dlr.de/xsd/sumoConfiguration.xsd">

    <input>
        <net-file value="Highway_route.net.xml"/>
        <route-files value="Highway.rou.xml"/>
    </input>

    <output>
        <fcd-output value="fcd-output.xml"/>
        <fcd-output.acceleration value="true"/>
        <amitran-output value="trajectory"/>
        <collision-output value="collision-output"/>
        <statistic-output value="statistic-output"/>
    </output>

    <time>
        <begin value="0"/>
        <end value="1000"/>
        <step-length value="1"/>
    </time>

    <processing>
        <collision.action value="remove"/>
        <max-num-vehicles value="40"/>
    </processing>

    <random_number>
        <random value="true"/>
    </random_number>

</configuration>
-->

<fcd-export xmlns:xsi="http://www.w3.org/2001/XMLSchema-instance" xsi:noNamespaceSchemaLocation="http://sumo.dlr.de/xsd/fcd_file.xsd">
    <timestep time="0.00">
        <vehicle id="f_0.0" x="-13.01" y="-4.80" angle="90.00" type="DEFAULT_VEHTYPE" speed="0.00" pos="86.99" lane="E0_0" slope="0.00" acceleration="0.00"/>
        <vehicle id="f_1.0" x="-63.23" y="-47.09" angle="33.37" type="DEFAULT_VEHTYPE" speed="0.00" pos="64.41" lane="E5_0" slope="0.00" acceleration="0.00"/>
        <vehicle id="f_2.0" x="-38.36" y="-1.60" angle="90.00" type="DEFAULT_VEHTYPE" speed="0.00" pos="61.64" lane="E0_1" slope="0.00" acceleration="0.00"/>
        <vehicle id="f_3.0" x="391.45" y="4.80" angle="270.00" type="DEFAULT_VEHTYPE" speed="0.00" pos="8.55" lane="-E2_0" slope="0.00" acceleration="0.00"/>
        <vehicle id="f_4.0" x="235.31" y="14.85" angle="227.00" type="DEFAULT_VEHTYPE" speed="0.00" pos="107.14" lane="E7_0" slope="0.00" acceleration="0.00"/>
        <vehicle id="f_5.0" x="329.90" y="1.60" angle="270.00" type="DEFAULT_VEHTYPE" speed="0.00" pos="70.10" lane="-E2_1" slope="0.00" acceleration="0.00"/>
    </timestep>
    <timestep time="1.00">
        <vehicle id="f_0.0" x="-11.82" y="-4.79" angle="89.86" type="DEFAULT_VEHTYPE" speed="1.19" pos="88.18" lane="E0_0" slope="0.00" acceleration="1.19"/>
        <vehicle id="f_1.0" x="-62.59" y="-46.09" angle="33.28" type="DEFAULT_VEHTYPE" speed="1.19" pos="65.60" lane="E5_0" slope="0.00" acceleration="1.19"/>
        <vehicle id="f_2.0" x="-37.17" y="-1.59" angle="89.84" type="DEFAULT_VEHTYPE" speed="1.19" pos="62.83" lane="E0_1" slope="0.00" acceleration="1.19"/>
        <vehicle id="f_3.0" x="390.26" y="4.79" angle="269.86" type="DEFAULT_VEHTYPE" speed="1.19" pos="9.74" lane="-E2_0" slope="0.00" acceleration="1.19"/>
        <vehicle id="f_4.0" x="234.76" y="14.60" angle="230.64" type="DEFAULT_VEHTYPE" speed="0.61" pos="107.75" lane="E7_0" slope="0.00" acceleration="0.61"/>
        <vehicle id="f_5.0" x="328.71" y="1.61" angle="270.08" type="DEFAULT_VEHTYPE" speed="1.19" pos="71.29" lane="-E2_1" slope="0.00" acceleration="1.19"/>
    </timestep>
    <timestep time="2.00">
        <vehicle id="f_0.0" x="-8.05" y="-4.82" angle="90.64" type="DEFAULT_VEHTYPE" speed="3.78" pos="3.73" lane=":J1_4_0" slope="0.00" acceleration="2.59"/>
        <vehicle id="f_0.1" x="-81.12" y="-4.80" angle="90.00" type="DEFAULT_VEHTYPE" speed="0.00" pos="18.88" lane="E0_0" slope="0.00" acceleration="0.00"/>
        <vehicle id="f_1.0" x="-60.52" y="-42.93" angle="33.21" type="DEFAULT_VEHTYPE" speed="3.78" pos="69.37" lane="E5_0" slope="0.00" acceleration="2.59"/>
        <vehicle id="f_1.1" x="-55.37" y="-35.16" angle="33.37" type="DEFAULT_VEHTYPE" speed="0.00" pos="78.70" lane="E5_0" slope="0.00" acceleration="0.00"/>
        <vehicle id="f_2.0" x="-33.39" y="-1.68" angle="91.07" type="DEFAULT_VEHTYPE" speed="3.78" pos="66.61" lane="E0_1" slope="0.00" acceleration="2.59"/>
        <vehicle id="f_3.0" x="386.48" y="4.78" angle="269.84" type="DEFAULT_VEHTYPE" speed="3.78" pos="13.52" lane="-E2_0" slope="0.00" acceleration="2.59"/>
        <vehicle id="f_3.1" x="328.98" y="4.80" angle="270.00" type="DEFAULT_VEHTYPE" speed="0.00" pos="71.03" lane="-E2_0" slope="0.00" acceleration="0.00"/>
        <vehicle id="f_4.0" x="231.90" y="13.17" angle="243.91" type="DEFAULT_VEHTYPE" speed="3.20" pos="110.94" lane="E7_0" slope="0.00" acceleration="2.59"/>
        <vehicle id="f_4.1" x="288.20" y="86.41" angle="215.86" type="DEFAULT_VEHTYPE" speed="0.00" pos="17.92" lane="E7_0" slope="0.00" acceleration="0.00"/>
        <vehicle id="f_5.0" x="324.93" y="1.66" angle="270.63" type="DEFAULT_VEHTYPE" speed="3.78" pos="75.07" lane="-E2_1" slope="0.00" acceleration="2.59"/>
        <vehicle id="f_5.1" x="339.41" y="1.60" angle="270.00" type="DEFAULT_VEHTYPE" speed="0.00" pos="60.59" lane="-E2_1" slope="0.00" acceleration="0.00"/>
    </timestep>
    <timestep time="3.00">
        <vehicle id="f_0.0" x="-1.29" y="-4.86" angle="90.40" type="DEFAULT_VEHTYPE" speed="6.75" pos="6.58" lane="E4_1" slope="0.00" acceleration="2.98"/>
        <vehicle id="f_0.1" x="-79.93" y="-4.81" angle="90.15" type="DEFAULT_VEHTYPE" speed="1.19" pos="20.07" lane="E0_0" slope="0.00" acceleration="1.19"/>
        <vehicle id="f_0.2" x="-61.32" y="-4.80" angle="90.00" type="DEFAULT_VEHTYPE" speed="0.00" pos="38.68" lane="E0_0" slope="0.00" acceleration="0.00"/>
        <vehicle id="f_1.0" x="-60.17" y="-42.39" angle="33.19" type="DEFAULT_VEHTYPE" speed="0.64" pos="70.02" lane="E5_0" slope="0.00" acceleration="-3.13"/>
        <vehicle id="f_1.1" x="-54.72" y="-34.16" angle="33.42" type="DEFAULT_VEHTYPE" speed="1.19" pos="79.89" lane="E5_0" slope="0.00" acceleration="1.19"/>
        <vehicle id="f_1.2" x="-82.83" y="-76.85" angle="33.37" type="DEFAULT_VEHTYPE" speed="0.00" pos="28.78" lane="E5_0" slope="0.00" acceleration="0.00"/>
        <vehicle id="f_2.0" x="-28.67" y="-1.67" angle="89.97" type="DEFAULT_VEHTYPE" speed="4.72" pos="71.33" lane="E0_1" slope="0.00" acceleration="0.95"/>
        <vehicle id="f_3.0" x="381.65" y="4.73" angle="269.47" type="DEFAULT_VEHTYPE" speed="4.83" pos="18.35" lane="-E2_0" slope="0.00" acceleration="1.05"/>
        <vehicle id="f_3.1" x="327.78" y="4.80" angle="269.96" type="DEFAULT_VEHTYPE" speed="1.19" pos="72.22" lane="-E2_0" slope="0.00" acceleration="1.19"/>
        <vehicle id="f_3.2" x="338.00" y="4.80" angle="270.00" type="DEFAULT_VEHTYPE" speed="0.00" pos="62.00" lane="-E2_0" slope="0.00" acceleration="0.00"/>
        <vehicle id="f_4.0" x="226.15" y="10.41" angle="244.41" type="DEFAULT_VEHTYPE" speed="6.38" pos="5.43" lane=":J3_0_0" slope="0.00" acceleration="3.19"/>
        <vehicle id="f_4.1" x="287.83" y="85.92" angle="215.95" type="DEFAULT_VEHTYPE" speed="0.62" pos="18.54" lane="E7_0" slope="0.00" acceleration="0.62"/>
        <vehicle id="f_4.2" x="244.12" y="25.43" angle="215.86" type="DEFAULT_VEHTYPE" speed="0.00" pos="93.17" lane="E7_0" slope="0.00" acceleration="0.00"/>
        <vehicle id="f_5.0" x="319.04" y="1.64" angle="269.85" type="DEFAULT_VEHTYPE" speed="5.89" pos="80.96" lane="-E2_1" slope="0.00" acceleration="2.12"/>
        <vehicle id="f_5.1" x="338.31" y="1.60" angle="269.97" type="DEFAULT_VEHTYPE" speed="1.10" pos="61.69" lane="-E2_1" slope="0.00" acceleration="1.10"/>
        <vehicle id="f_5.2" x="360.51" y="1.60" angle="270.00" type="DEFAULT_VEHTYPE" speed="0.00" pos="39.49" lane="-E2_1" slope="0.00" acceleration="0.00"/>
    </timestep>
    <timestep time="4.00">
        <vehicle id="f_0.0" x="10.12" y="-4.83" angle="89.83" type="DEFAULT_VEHTYPE" speed="11.41" pos="17.99" lane="E4_1" slope="0.00" acceleration="4.66"/>
        <vehicle id="f_0.1" x="-76.30" y="-1.61" angle="89.96" type="DEFAULT_VEHTYPE" speed="3.63" pos="23.70" lane="E0_1" slope="0.00" acceleration="2.45"/>
        <vehicle id="f_0.2" x="-60.14" y="-4.80" angle="90.00" type="DEFAULT_VEHTYPE" speed="1.19" pos="39.86" lane="E0_0" slope="0.00" acceleration="1.19"/>
        <vehicle id="f_1.0" x="-58.75" y="-40.29" angle="33.59" type="DEFAULT_VEHTYPE" speed="2.53" pos="72.55" lane="E5_0" slope="0.00" acceleration="1.89"/>
        <vehicle id="f_1.1" x="-52.67" y="-30.99" angle="32.98" type="DEFAULT_VEHTYPE" speed="3.77" pos="83.66" lane="E5_0" slope="0.00" acceleration="2.58"/>
        <vehicle id="f_1.2" x="-82.17" y="-75.86" angle="33.45" type="DEFAULT_VEHTYPE" speed="1.18" pos="29.96" lane="E5_0" slope="0.00" acceleration="1.18"/>
        <vehicle id="f_1.3" x="-98.37" y="-100.44" angle="33.37" type="DEFAULT_VEHTYPE" speed="0.00" pos="0.52" lane="E5_0" slope="0.00" acceleration="0.00"/>
        <vehicle id="f_2.0" x="-22.29" y="-1.60" angle="89.33" type="DEFAULT_VEHTYPE" speed="6.38" pos="77.71" lane="E0_1" slope="0.00" acceleration="1.65"/>
        <vehicle id="f_3.0" x="376.01" y="4.73" angle="270.01" type="DEFAULT_VEHTYPE" speed="5.64" pos="23.99" lane="-E2_0" slope="0.00" acceleration="0.81"/>
        <vehicle id="f_3.1" x="324.01" y="4.80" angle="270.01" type="DEFAULT_VEHTYPE" speed="3.78" pos="75.99" lane="-E2_0" slope="0.00" acceleration="2.59"/>
        <vehicle id="f_3.2" x="337.13" y="4.80" angle="269.97" type="DEFAULT_VEHTYPE" speed="0.87" pos="62.87" lane="-E2_0" slope="0.00" acceleration="0.87"/>
        <vehicle id="f_3.3" x="391.58" y="4.80" angle="270.00" type="DEFAULT_VEHTYPE" speed="0.00" pos="8.42" lane="-E2_0" slope="0.00" acceleration="0.00"/>
        <vehicle id="f_4.0" x="216.21" y="8.21" angle="263.23" type="DEFAULT_VEHTYPE" speed="10.25" pos="15.67" lane=":J3_0_0" slope="0.00" acceleration="3.87"/>
        <vehicle id="f_4.1" x="286.69" y="84.31" angle="215.74" type="DEFAULT_VEHTYPE" speed="1.97" pos="20.51" lane="E7_0" slope="0.00" acceleration="1.35"/>
        <vehicle id="f_4.2" x="243.43" y="24.48" angle="215.86" type="DEFAULT_VEHTYPE" speed="1.17" pos="94.34" lane="E7_0" slope="0.00" acceleration="1.17"/>
        <vehicle id="f_4.3" x="296.11" y="97.36" angle="215.86" type="DEFAULT_VEHTYPE" speed="0.00" pos="4.42" lane="E7_0" slope="0.00" acceleration="0.00"/>
        <vehicle id="f_5.0" x="314.03" y="1.72" angle="270.91" type="DEFAULT_VEHTYPE" speed="5.01" pos="85.97" lane="-E2_1" slope="0.00" acceleration="-0.88"/>
        <vehicle id="f_5.1" x="334.71" y="1.58" angle="269.83" type="DEFAULT_VEHTYPE" speed="3.60" pos="65.29" lane="-E2_1" slope="0.00" acceleration="2.50"/>
        <vehicle id="f_5.2" x="359.35" y="1.61" angle="270.11" type="DEFAULT_VEHTYPE" speed="1.16" pos="40.65" lane="-E2_1" slope="0.00" acceleration="1.16"/>
    </timestep>
    <timestep time="5.00">
        <vehicle id="f_0.0" x="24.89" y="-4.79" angle="89.83" type="DEFAULT_VEHTYPE" speed="14.76" pos="32.76" lane="E4_1" slope="0.00" acceleration="3.35"/>
        <vehicle id="f_0.1" x="-71.09" y="-1.58" angle="89.75" type="DEFAULT_VEHTYPE" speed="5.21" pos="28.91" lane="E0_1" slope="0.00" acceleration="1.57"/>
        <vehicle id="f_0.2" x="-56.37" y="-4.79" angle="89.85" type="DEFAULT_VEHTYPE" speed="3.77" pos="43.63" lane="E0_0" slope="0.00" acceleration="2.58"/>
        <vehicle id="f_0.3" x="-74.43" y="-4.80" angle="90.00" type="DEFAULT_VEHTYPE" speed="0.00" pos="25.57" lane="E0_0" slope="0.00" acceleration="0.00"/>
        <vehicle id="f_1.0" x="-56.07" y="-36.30" angle="33.92" type="DEFAULT_VEHTYPE" speed="4.81" pos="77.36" lane="E5_0" slope="0.00" acceleration="2.28"/>
        <vehicle id="f_1.1" x="-48.15" y="-24.39" angle="34.37" type="DEFAULT_VEHTYPE" speed="8.00" pos="91.66" lane="E5_0" slope="0.00" acceleration="4.22"/>
        <vehicle id="f_1.2" x="-80.09" y="-72.74" angle="33.68" type="DEFAULT_VEHTYPE" speed="3.76" pos="33.72" lane="E5_0" slope="0.00" acceleration="2.57"/>
        <vehicle id="f_1.3" x="-97.73" y="-99.46" angle="33.29" type="DEFAULT_VEHTYPE" speed="1.18" pos="1.70" lane="E5_0" slope="0.00" acceleration="1.18"/>
        <vehicle id="f_2.0" x="-13.33" y="-1.60" angle="90.01" type="DEFAULT_VEHTYPE" speed="8.96" pos="86.67" lane="E0_1" slope="0.00" acceleration="2.59"/>
        <vehicle id="f_3.0" x="370.53" y="4.74" angle="270.10" type="DEFAULT_VEHTYPE" speed="5.48" pos="29.47" lane="-E2_0" slope="0.00" acceleration="-0.16"/>
        <vehicle id="f_3.1" x="318.09" y="4.67" angle="268.75" type="DEFAULT_VEHTYPE" speed="5.92" pos="81.91" lane="-E2_0" slope="0.00" acceleration="2.14"/>
        <vehicle id="f_3.2" x="333.94" y="4.78" angle="269.80" type="DEFAULT_VEHTYPE" speed="3.19" pos="66.06" lane="-E2_0" slope="0.00" acceleration="2.31"/>
        <vehicle id="f_3.3" x="390.46" y="1.61" angle="270.14" type="DEFAULT_VEHTYPE" speed="1.12" pos="9.54" lane="-E2_1" slope="0.00" acceleration="1.12"/>
        <vehicle id="f_4.0" x="203.49" y="8.13" angle="270.42" type="DEFAULT_VEHTYPE" speed="12.73" pos="10.58" lane="-E1_0" slope="0.00" acceleration="2.49"/>
        <vehicle id="f_4.1" x="284.00" y="80.63" angle="216.14" type="DEFAULT_VEHTYPE" speed="4.56" pos="25.07" lane="E7_0" slope="0.00" acceleration="2.59"/>
        <vehicle id="f_4.2" x="241.30" y="21.41" angle="215.05" type="DEFAULT_VEHTYPE" speed="3.73" pos="98.07" lane="E7_0" slope="0.00" acceleration="2.56"/>
        <vehicle id="f_4.3" x="295.75" y="96.85" angle="215.80" type="DEFAULT_VEHTYPE" speed="0.62" pos="5.04" lane="E7_0" slope="0.00" acceleration="0.62"/>
        <vehicle id="f_4.4" x="289.74" y="88.54" angle="215.86" type="DEFAULT_VEHTYPE" speed="0.00" pos="15.30" lane="E7_0" slope="0.00" acceleration="0.00"/>
        <vehicle id="f_5.0" x="306.91" y="1.74" angle="270.10" type="DEFAULT_VEHTYPE" speed="7.12" pos="93.09" lane="-E2_1" slope="0.00" acceleration="2.12"/>
        <vehicle id="f_5.1" x="326.57" y="1.43" angle="268.89" type="DEFAULT_VEHTYPE" speed="8.14" pos="73.43" lane="-E2_1" slope="0.00" acceleration="4.54"/>
        <vehicle id="f_5.2" x="355.64" y="1.62" angle="270.20" type="DEFAULT_VEHTYPE" speed="3.70" pos="44.36" lane="-E2_1" slope="0.00" acceleration="2.54"/>
        <vehicle id="f_5.3" x="397.19" y="4.80" angle="270.00" type="DEFAULT_VEHTYPE" speed="0.00" pos="2.81" lane="-E2_0" slope="0.00" acceleration="0.00"/>
    </timestep>
    <timestep time="6.00">
        <vehicle id="f_0.0" x="42.90" y="-4.90" angle="90.36" type="DEFAULT_VEHTYPE" speed="18.02" pos="50.77" lane="E4_1" slope="0.00" acceleration="3.26"/>
        <vehicle id="f_0.1" x="-64.97" y="-1.52" angle="89.43" type="DEFAULT_VEHTYPE" speed="6.12" pos="35.03" lane="E0_1" slope="0.00" acceleration="0.92"/>
        <vehicle id="f_0.2" x="-51.55" y="-4.81" angle="90.21" type="DEFAULT_VEHTYPE" speed="4.82" pos="48.45" lane="E0_0" slope="0.00" acceleration="1.05"/>
        <vehicle id="f_0.3" x="-73.29" y="-4.81" angle="90.16" type="DEFAULT_VEHTYPE" speed="1.14" pos="26.71" lane="E0_0" slope="0.00" acceleration="1.14"/>
        <vehicle id="f_0.4" x="-19.29" y="-4.80" angle="90.00" type="DEFAULT_VEHTYPE" speed="0.00" pos="80.71" lane="E0_0" slope="0.00" acceleration="0.00"/>
        <vehicle id="f_1.0" x="-51.63" y="-29.68" angle="33.85" type="DEFAULT_VEHTYPE" speed="7.97" pos="85.33" lane="E5_0" slope="0.00" acceleration="3.15"/>
        <vehicle id="f_1.1" x="-39.81" y="-14.79" angle="50.61" type="DEFAULT_VEHTYPE" speed="12.90" pos="104.56" lane="E5_0" slope="0.00" acceleration="4.90"/>
        <vehicle id="f_1.2" x="-77.59" y="-68.93" angle="33.26" type="DEFAULT_VEHTYPE" speed="4.55" pos="38.27" lane="E5_0" slope="0.00" acceleration="0.80"/>
        <vehicle id="f_1.3" x="-95.71" y="-96.31" angle="32.80" type="DEFAULT_VEHTYPE" speed="3.74" pos="5.44" lane="E5_0" slope="0.00" acceleration="2.56"/>
        <vehicle id="f_2.0" x="-1.72" y="-1.58" angle="89.92" type="DEFAULT_VEHTYPE" speed="11.61" pos="6.15" lane="E4_2" slope="0.00" acceleration="2.64"/>
        <vehicle id="f_2.1" x="-54.59" y="-1.60" angle="90.00" type="DEFAULT_VEHTYPE" speed="0.00" pos="45.41" lane="E0_1" slope="0.00" acceleration="0.00"/>
        <vehicle id="f_3.0" x="363.15" y="4.77" angle="270.24" type="DEFAULT_VEHTYPE" speed="7.38" pos="36.85" lane="-E2_0" slope="0.00" acceleration="1.90"/>
        <vehicle id="f_3.1" x="311.81" y="4.60" angle="269.31" type="DEFAULT_VEHTYPE" speed="6.29" pos="88.19" lane="-E2_0" slope="0.00" acceleration="0.37"/>
        <vehicle id="f_3.2" x="327.48" y="4.80" angle="270.14" type="DEFAULT_VEHTYPE" speed="6.47" pos="72.52" lane="-E2_0" slope="0.00" acceleration="3.28"/>
        <vehicle id="f_3.3" x="386.78" y="1.57" angle="269.58" type="DEFAULT_VEHTYPE" speed="3.68" pos="13.22" lane="-E2_1" slope="0.00" acceleration="2.57"/>
        <vehicle id="f_3.4" x="331.45" y="1.60" angle="270.00" type="DEFAULT_VEHTYPE" speed="0.00" pos="68.55" lane="-E2_1" slope="0.00" acceleration="0.00"/>
        <vehicle id="f_3.5" x="375.49" y="1.60" angle="270.00" type="DEFAULT_VEHTYPE" speed="0.00" pos="24.51" lane="-E2_1" slope="0.00" acceleration="0.00"/>
        <vehicle id="f_4.0" x="188.31" y="8.04" angle="269.65" type="DEFAULT_VEHTYPE" speed="15.17" pos="25.76" lane="-E1_0" slope="0.00" acceleration="2.44"/>
        <vehicle id="f_4.1" x="279.70" y="74.74" angle="216.09" type="DEFAULT_VEHTYPE" speed="7.30" pos="32.36" lane="E7_0" slope="0.00" acceleration="2.74"/>
        <vehicle id="f_4.2" x="237.44" y="16.01" angle="215.52" type="DEFAULT_VEHTYPE" speed="6.64" pos="104.71" lane="E7_0" slope="0.00" acceleration="2.91"/>
        <vehicle id="f_4.3" x="294.65" y="95.22" angle="215.12" type="DEFAULT_VEHTYPE" speed="1.97" pos="7.01" lane="E7_0" slope="0.00" acceleration="1.35"/>
        <vehicle id="f_4.4" x="289.37" y="88.05" angle="215.99" type="DEFAULT_VEHTYPE" speed="0.62" pos="15.92" lane="E7_0" slope="0.00" acceleration="0.62"/>
        <vehicle id="f_4.5" x="263.02" y="51.58" angle="215.86" type="DEFAULT_VEHTYPE" speed="0.00" pos="60.90" lane="E7_0" slope="0.00" acceleration="0.00"/>
        <vehicle id="f_5.0" x="297.85" y="5.00" angle="282.58" type="DEFAULT_VEHTYPE" speed="9.74" pos="2.50" lane="-E3_1" slope="0.00" acceleration="2.62"/>
        <vehicle id="f_5.1" x="315.03" y="1.27" angle="269.25" type="DEFAULT_VEHTYPE" speed="11.54" pos="84.97" lane="-E2_1" slope="0.00" acceleration="3.41"/>
        <vehicle id="f_5.2" x="347.53" y="1.71" angle="270.58" type="DEFAULT_VEHTYPE" speed="8.11" pos="52.47" lane="-E2_1" slope="0.00" acceleration="4.41"/>
        <vehicle id="f_5.3" x="396.02" y="4.80" angle="270.02" type="DEFAULT_VEHTYPE" speed="1.17" pos="3.98" lane="-E2_0" slope="0.00" acceleration="1.17"/>
        <vehicle id="f_5.4" x="380.88" y="4.80" angle="270.00" type="DEFAULT_VEHTYPE" speed="0.00" pos="19.12" lane="-E2_0" slope="0.00" acceleration="0.00"/>
    </timestep>
    <timestep time="7.00">
        <vehicle id="f_0.0" x="62.58" y="-4.81" angle="89.74" type="DEFAULT_VEHTYPE" speed="19.67" pos="70.45" lane="E4_1" slope="0.00" acceleration="1.65"/>
        <vehicle id="f_0.1" x="-64.68" y="-1.53" angle="89.50" type="DEFAULT_VEHTYPE" speed="0.30" pos="35.32" lane="E0_1" slope="0.00" acceleration="-5.83"/>
        <vehicle id="f_0.2" x="-47.00" y="-4.82" angle="90.17" type="DEFAULT_VEHTYPE" speed="4.54" pos="53.00" lane="E0_0" slope="0.00" acceleration="-0.28"/>
        <vehicle id="f_0.3" x="-69.62" y="-4.80" angle="89.93" type="DEFAULT_VEHTYPE" speed="3.67" pos="30.38" lane="E0_0" slope="0.00" acceleration="2.52"/>
        <vehicle id="f_0.4" x="-18.10" y="-4.81" angle="90.14" type="DEFAULT_VEHTYPE" speed="1.19" pos="81.90" lane="E0_0" slope="0.00" acceleration="1.19"/>
        <vehicle id="f_0.5" x="-14.59" y="-1.60" angle="90.00" type="DEFAULT_VEHTYPE" speed="0.00" pos="85.41" lane="E0_1" slope="0.00" acceleration="0.00"/>
        <vehicle id="f_1.0" x="-45.96" y="-21.19" angle="33.76" type="DEFAULT_VEHTYPE" speed="10.21" pos="95.54" lane="E5_0" slope="0.00" acceleration="2.24"/>
        <vehicle id="f_1.1" x="-27.09" y="-8.24" angle="79.84" type="DEFAULT_VEHTYPE" speed="14.89" pos="119.44" lane="E5_0" slope="0.00" acceleration="1.99"/>
        <vehicle id="f_1.2" x="-73.20" y="-62.20" angle="33.10" type="DEFAULT_VEHTYPE" speed="8.04" pos="46.31" lane="E5_0" slope="0.00" acceleration="3.48"/>
        <vehicle id="f_1.3" x="-91.57" y="-89.70" angle="32.12" type="DEFAULT_VEHTYPE" speed="7.80" pos="13.24" lane="E5_0" slope="0.00" acceleration="4.06"/>
        <vehicle id="f_1.4" x="-51.86" y="-29.82" angle="33.37" type="DEFAULT_VEHTYPE" speed="0.00" pos="85.09" lane="E5_0" slope="0.00" acceleration="0.00"/>
        <vehicle id="f_1.5" x="-82.29" y="-76.03" angle="33.37" type="DEFAULT_VEHTYPE" speed="0.00" pos="29.76" lane="E5_0" slope="0.00" acceleration="0.00"/>
        <vehicle id="f_2.0" x="13.94" y="-4.94" angle="90.58" type="DEFAULT_VEHTYPE" speed="15.66" pos="21.81" lane="E4_1" slope="0.00" acceleration="4.05"/>
        <vehicle id="f_2.1" x="-53.41" y="-1.60" angle="89.95" type="DEFAULT_VEHTYPE" speed="1.19" pos="46.59" lane="E0_1" slope="0.00" acceleration="1.19"/>
        <vehicle id="f_3.0" x="353.85" y="4.65" angle="269.22" type="DEFAULT_VEHTYPE" speed="9.30" pos="46.15" lane="-E2_0" slope="0.00" acceleration="1.92"/>
        <vehicle id="f_3.1" x="304.92" y="5.00" angle="274.78" type="DEFAULT_VEHTYPE" speed="6.81" pos="1.39" lane=":J4_0_0" slope="0.00" acceleration="0.53"/>
        <vehicle id="f_3.2" x="317.56" y="1.57" angle="269.85" type="DEFAULT_VEHTYPE" speed="9.92" pos="82.44" lane="-E2_1" slope="0.00" acceleration="3.45"/>
        <vehicle id="f_3.3" x="383.26" y="1.57" angle="269.87" type="DEFAULT_VEHTYPE" speed="3.52" pos="16.74" lane="-E2_1" slope="0.00" acceleration="-0.16"/>
        <vehicle id="f_3.4" x="330.32" y="1.62" angle="270.22" type="DEFAULT_VEHTYPE" speed="1.13" pos="69.68" lane="-E2_1" slope="0.00" acceleration="1.13"/>
        <vehicle id="f_3.5" x="374.32" y="1.60" angle="270.00" type="DEFAULT_VEHTYPE" speed="1.18" pos="25.68" lane="-E2_1" slope="0.00" acceleration="1.18"/>
        <vehicle id="f_4.0" x="171.13" y="7.86" angle="269.40" type="DEFAULT_VEHTYPE" speed="17.18" pos="42.94" lane="-E1_0" slope="0.00" acceleration="2.01"/>
        <vehicle id="f_4.1" x="273.32" y="65.80" angle="215.52" type="DEFAULT_VEHTYPE" speed="10.98" pos="43.35" lane="E7_0" slope="0.00" acceleration="3.69"/>
        <vehicle id="f_4.2" x="231.94" y="13.13" angle="244.68" type="DEFAULT_VEHTYPE" speed="6.21" pos="110.92" lane="E7_0" slope="0.00" acceleration="-0.43"/>
        <vehicle id="f_4.3" x="293.44" y="93.49" angle="215.00" type="DEFAULT_VEHTYPE" speed="2.11" pos="9.12" lane="E7_0" slope="0.00" acceleration="0.14"/>
        <vehicle id="f_4.4" x="288.21" y="86.45" angle="215.93" type="DEFAULT_VEHTYPE" speed="1.97" pos="17.89" lane="E7_0" slope="0.00" acceleration="1.35"/>
        <vehicle id="f_4.5" x="262.66" y="51.08" angle="215.85" type="DEFAULT_VEHTYPE" speed="0.62" pos="61.52" lane="E7_0" slope="0.00" acceleration="0.62"/>
        <vehicle id="f_5.0" x="286.30" y="4.92" angle="269.60" type="DEFAULT_VEHTYPE" speed="11.55" pos="14.05" lane="-E3_1" slope="0.00" acceleration="1.81"/>
        <vehicle id="f_5.1" x="302.25" y="3.50" angle="293.69" type="DEFAULT_VEHTYPE" speed="12.96" pos="4.31" lane=":J4_0_1" slope="0.00" acceleration="1.41"/>
        <vehicle id="f_5.2" x="339.46" y="4.82" angle="269.38" type="DEFAULT_VEHTYPE" speed="8.07" pos="60.54" lane="-E2_0" slope="0.00" acceleration="-0.04"/>
        <vehicle id="f_5.3" x="392.52" y="4.77" angle="269.67" type="DEFAULT_VEHTYPE" speed="3.49" pos="7.48" lane="-E2_0" slope="0.00" acceleration="2.32"/>
        <vehicle id="f_5.4" x="379.74" y="4.79" angle="269.89" type="DEFAULT_VEHTYPE" speed="1.14" pos="20.26" lane="-E2_0" slope="0.00" acceleration="1.14"/>
    </timestep>
    <timestep time="8.00">
        <vehicle id="f_0.0" x="82.18" y="-4.70" angle="89.66" type="DEFAULT_VEHTYPE" speed="19.60" pos="90.05" lane="E4_1" slope="0.00" acceleration="-0.07"/>
        <vehicle id="f_0.1" x="-63.53" y="-1.53" angle="89.63" type="DEFAULT_VEHTYPE" speed="1.14" pos="36.47" lane="E0_1" slope="0.00" acceleration="0.85"/>
        <vehicle id="f_0.2" x="-42.21" y="-4.85" angle="90.36" type="DEFAULT_VEHTYPE" speed="4.80" pos="57.79" lane="E0_0" slope="0.00" acceleration="0.26"/>
        <vehicle id="f_0.3" x="-61.70" y="-4.84" angle="90.25" type="DEFAULT_VEHTYPE" speed="7.92" pos="38.30" lane="E0_0" slope="0.00" acceleration="4.26"/>
        <vehicle id="f_0.4" x="-14.35" y="-4.81" angle="90.02" type="DEFAULT_VEHTYPE" speed="3.75" pos="85.65" lane="E0_0" slope="0.00" acceleration="2.56"/>
        <vehicle id="f_0.5" x="-13.40" y="-1.60" angle="90.04" type="DEFAULT_VEHTYPE" speed="1.19" pos="86.60" lane="E0_1" slope="0.00" acceleration="1.19"/>
        <vehicle id="f_0.6" x="-99.93" y="-4.80" angle="90.00" type="DEFAULT_VEHTYPE" speed="0.00" pos="0.07" lane="E0_0" slope="0.00" acceleration="0.00"/>
        <vehicle id="f_1.0" x="-34.71" y="-10.93" angle="52.10" type="DEFAULT_VEHTYPE" speed="15.45" pos="110.99" lane="E5_0" slope="0.00" acceleration="5.24"/>
        <vehicle id="f_1.1" x="-13.22" y="-8.23" angle="90.36" type="DEFAULT_VEHTYPE" speed="13.87" pos="133.32" lane="E5_0" slope="0.00" acceleration="-1.01"/>
        <vehicle id="f_1.2" x="-67.35" y="-53.39" angle="33.63" type="DEFAULT_VEHTYPE" speed="10.58" pos="56.89" lane="E5_0" slope="0.00" acceleration="2.54"/>
        <vehicle id="f_1.3" x="-87.24" y="-83.37" angle="34.34" type="DEFAULT_VEHTYPE" speed="7.66" pos="20.90" lane="E5_0" slope="0.00" acceleration="-0.14"/>
        <vehicle id="f_1.4" x="-51.37" y="-29.06" angle="33.27" type="DEFAULT_VEHTYPE" speed="0.90" pos="85.99" lane="E5_0" slope="0.00" acceleration="0.90"/>
        <vehicle id="f_1.5" x="-81.67" y="-75.08" angle="33.33" type="DEFAULT_VEHTYPE" speed="1.13" pos="30.89" lane="E5_0" slope="0.00" acceleration="1.13"/>
        <vehicle id="f_2.0" x="33.92" y="-5.03" angle="90.26" type="DEFAULT_VEHTYPE" speed="19.98" pos="41.79" lane="E4_1" slope="0.00" acceleration="4.32"/>
        <vehicle id="f_2.1" x="-49.65" y="-1.63" angle="90.38" type="DEFAULT_VEHTYPE" speed="3.75" pos="50.35" lane="E0_1" slope="0.00" acceleration="2.57"/>
        <vehicle id="f_2.2" x="-22.80" y="-1.60" angle="90.00" type="DEFAULT_VEHTYPE" speed="0.00" pos="77.20" lane="E0_1" slope="0.00" acceleration="0.00"/>
        <vehicle id="f_3.0" x="342.99" y="4.72" angle="270.38" type="DEFAULT_VEHTYPE" speed="10.86" pos="57.01" lane="-E2_0" slope="0.00" acceleration="1.56"/>
        <vehicle id="f_3.1" x="297.46" y="7.85" angle="277.80" type="DEFAULT_VEHTYPE" speed="8.21" pos="2.89" lane="-E3_0" slope="0.00" acceleration="1.40"/>
        <vehicle id="f_3.2" x="304.13" y="2.43" angle="279.92" type="DEFAULT_VEHTYPE" speed="13.50" pos="2.32" lane=":J4_0_1" slope="0.00" acceleration="3.58"/>
        <vehicle id="f_3.3" x="380.79" y="1.62" angle="270.44" type="DEFAULT_VEHTYPE" speed="2.47" pos="19.21" lane="-E2_1" slope="0.00" acceleration="-1.05"/>
        <vehicle id="f_3.4" x="326.91" y="1.64" angle="270.27" type="DEFAULT_VEHTYPE" speed="3.42" pos="73.09" lane="-E2_1" slope="0.00" acceleration="2.29"/>
        <vehicle id="f_3.5" x="370.57" y="1.55" angle="269.45" type="DEFAULT_VEHTYPE" speed="3.75" pos="29.43" lane="-E2_1" slope="0.00" acceleration="2.57"/>
        <vehicle id="f_3.6" x="316.47" y="4.80" angle="270.00" type="DEFAULT_VEHTYPE" speed="0.00" pos="83.53" lane="-E2_0" slope="0.00" acceleration="0.00"/>
        <vehicle id="f_4.0" x="153.77" y="7.79" angle="269.77" type="DEFAULT_VEHTYPE" speed="17.36" pos="60.30" lane="-E1_0" slope="0.00" acceleration="0.18"/>
        <vehicle id="f_4.1" x="267.59" y="57.83" angle="215.73" type="DEFAULT_VEHTYPE" speed="9.81" pos="53.16" lane="E7_0" slope="0.00" acceleration="-1.17"/>
        <vehicle id="f_4.2" x="226.02" y="10.32" angle="244.64" type="DEFAULT_VEHTYPE" speed="6.56" pos="5.58" lane=":J3_0_0" slope="0.00" acceleration="0.35"/>
        <vehicle id="f_4.3" x="291.81" y="91.16" angle="215.08" type="DEFAULT_VEHTYPE" speed="2.84" pos="11.96" lane="E7_0" slope="0.00" acceleration="0.73"/>
        <vehicle id="f_4.4" x="285.56" y="82.79" angle="215.87" type="DEFAULT_VEHTYPE" speed="4.52" pos="22.41" lane="E7_0" slope="0.00" acceleration="2.55"/>
        <vehicle id="f_4.5" x="261.51" y="49.49" angle="215.87" type="DEFAULT_VEHTYPE" speed="1.97" pos="63.49" lane="E7_0" slope="0.00" acceleration="1.35"/>
        <vehicle id="f_5.0" x="273.58" y="4.83" angle="269.57" type="DEFAULT_VEHTYPE" speed="12.71" pos="26.77" lane="-E3_1" slope="0.00" acceleration="1.16"/>
        <vehicle id="f_5.1" x="287.78" y="7.25" angle="269.33" type="DEFAULT_VEHTYPE" speed="14.97" pos="12.57" lane="-E3_0" slope="0.00" acceleration="2.01"/>
        <vehicle id="f_5.2" x="328.43" y="4.90" angle="270.41" type="DEFAULT_VEHTYPE" speed="11.03" pos="71.57" lane="-E2_0" slope="0.00" acceleration="2.96"/>
        <vehicle id="f_5.3" x="387.42" y="4.83" angle="270.67" type="DEFAULT_VEHTYPE" speed="5.10" pos="12.58" lane="-E2_0" slope="0.00" acceleration="1.61"/>
        <vehicle id="f_5.4" x="376.06" y="4.81" angle="270.15" type="DEFAULT_VEHTYPE" speed="3.69" pos="23.94" lane="-E2_0" slope="0.00" acceleration="2.55"/>
        <vehicle id="f_5.5" x="394.32" y="1.60" angle="270.00" type="DEFAULT_VEHTYPE" speed="0.00" pos="5.68" lane="-E2_1" slope="0.00" acceleration="0.00"/>
    </timestep>
    <timestep time="9.00">
        <vehicle id="f_0.0" x="101.94" y="-4.68" angle="89.96" type="DEFAULT_VEHTYPE" speed="19.76" pos="10.04" lane="E1_1" slope="0.00" acceleration="0.16"/>
        <vehicle id="f_0.1" x="-60.51" y="-1.55" angle="90.11" type="DEFAULT_VEHTYPE" speed="3.02" pos="39.49" lane="E0_1" slope="0.00" acceleration="1.87"/>
        <vehicle id="f_0.2" x="-37.40" y="-4.86" angle="90.14" type="DEFAULT_VEHTYPE" speed="4.81" pos="62.60" lane="E0_0" slope="0.00" acceleration="0.01"/>
        <vehicle id="f_0.3" x="-50.09" y="-4.86" angle="90.13" type="DEFAULT_VEHTYPE" speed="11.61" pos="49.91" lane="E0_0" slope="0.00" acceleration="3.69"/>
        <vehicle id="f_0.4" x="-5.04" y="-4.89" angle="91.32" type="DEFAULT_VEHTYPE" speed="9.31" pos="2.83" lane="E4_1" slope="0.00" acceleration="5.56"/>