<?xml version="1.0" encoding="UTF-8"?>

<!-- generated on 2023-10-05 01:08:54 by Eclipse SUMO GUI Version 1.18.0
<configuration xmlns:xsi="http://www.w3.org/2001/XMLSchema-instance" xsi:noNamespaceSchemaLocation="http://sumo.dlr.de/xsd/sumoConfiguration.xsd">

    <input>
        <net-file value="/Users/sindhujach/Desktop/ECE 699/(No subject)/new.net.xml"/>
        <route-files value="/Users/sindhujach/Desktop/ECE 699/(No subject)/new.rou.xml"/>
    </input>

    <output>
        <fcd-output value="/Users/sindhujach/Desktop/ECE 699/(No subject)/fcd_output.xml"/>
        <full-output value="/Users/sindhujach/Desktop/ECE 699/(No subject)/FinalOutput.xml"/>
        <summary-output value="/Users/sindhujach/Desktop/ECE 699/(No subject)/summary_output.xml"/>
        <lanechange-output value="/Users/sindhujach/Desktop/ECE 699/(No subject)/lanechange_output.xml"/>
        <collision-output value="/Users/sindhujach/Desktop/ECE 699/(No subject)/collisionOutput.xml"/>
        <statistic-output value="/Users/sindhujach/Desktop/ECE 699/(No subject)/statistics_output.xml"/>
    </output>

    <time>
        <begin value="0"/>
        <end value="1000"/>
        <step-length value="0.8"/>
    </time>

    <processing>
        <collision.action value="remove"/>
        <collision.stoptime value="2"/>
        <max-num-vehicles value="30"/>
    </processing>

</configuration>
-->

<fcd-export xmlns:xsi="http://www.w3.org/2001/XMLSchema-instance" xsi:noNamespaceSchemaLocation="http://sumo.dlr.de/xsd/fcd_file.xsd">
    <timestep time="0.00">
        <vehicle id="f_0_default.0" x="-294.90" y="95.20" angle="90.00" type="DEFAULT_VEHTYPE" speed="0.00" pos="5.10" lane="-E29_0" slope="0.00"/>
        <vehicle id="f_1_default.0" x="-95.20" y="-94.90" angle="0.00" type="DEFAULT_VEHTYPE" speed="0.00" pos="5.10" lane="-E32_0" slope="0.00"/>
    </timestep>
    <timestep time="0.80">
        <vehicle id="f_0_default.0" x="-294.08" y="95.20" angle="90.00" type="DEFAULT_VEHTYPE" speed="1.02" pos="5.92" lane="-E29_0" slope="0.00"/>
        <vehicle id="f_1_default.0" x="-95.20" y="-93.95" angle="0.00" type="DEFAULT_VEHTYPE" speed="1.19" pos="6.05" lane="-E32_0" slope="0.00"/>
    </timestep>
    <timestep time="1.60">
        <vehicle id="f_0_default.0" x="-291.23" y="95.20" angle="90.00" type="DEFAULT_VEHTYPE" speed="3.56" pos="8.77" lane="-E29_0" slope="0.00"/>
        <vehicle id="f_1_default.0" x="-95.20" y="-92.60" angle="0.00" type="DEFAULT_VEHTYPE" speed="1.69" pos="7.40" lane="-E32_0" slope="0.00"/>
    </timestep>
    <timestep time="2.40">
        <vehicle id="f_0_default.0" x="-287.03" y="95.20" angle="90.00" type="DEFAULT_VEHTYPE" speed="5.26" pos="12.97" lane="-E29_0" slope="0.00"/>
        <vehicle id="f_0_ego.0" x="-294.90" y="95.20" angle="90.00" type="EGO_VEHTYPE" speed="0.00" pos="5.10" lane="-E29_0" slope="0.00"/>
        <vehicle id="f_1_default.0" x="-95.20" y="-89.83" angle="0.00" type="DEFAULT_VEHTYPE" speed="3.45" pos="10.17" lane="-E32_0" slope="0.00"/>
    </timestep>
    <timestep time="3.20">
        <vehicle id="f_0_default.0" x="-284.10" y="95.20" angle="90.00" type="DEFAULT_VEHTYPE" speed="3.66" pos="15.90" lane="-E29_0" slope="0.00"/>
        <vehicle id="f_0_ego.0" x="-294.90" y="95.20" angle="90.00" type="EGO_VEHTYPE" speed="0.00" pos="5.10" lane="-E29_0" slope="0.00"/>
        <vehicle id="f_1_default.0" x="-95.20" y="-86.42" angle="0.00" type="DEFAULT_VEHTYPE" speed="4.27" pos="13.58" lane="-E32_0" slope="0.00"/>
        <vehicle id="f_1_default.1" x="-95.20" y="-94.90" angle="0.00" type="DEFAULT_VEHTYPE" speed="0.00" pos="5.10" lane="-E32_0" slope="0.00"/>
    </timestep>
    <timestep time="4.00">
        <vehicle id="f_0_default.0" x="-282.46" y="95.20" angle="90.00" type="DEFAULT_VEHTYPE" speed="2.06" pos="17.54" lane="-E29_0" slope="0.00"/>
        <vehicle id="f_0_ego.0" x="-294.90" y="95.20" angle="90.00" type="EGO_VEHTYPE" speed="0.00" pos="5.10" lane="-E29_0" slope="0.00"/>
        <vehicle id="f_1_default.0" x="-95.20" y="-82.09" angle="0.00" type="DEFAULT_VEHTYPE" speed="5.40" pos="17.91" lane="-E32_0" slope="0.00"/>
        <vehicle id="f_1_default.1" x="-95.20" y="-93.69" angle="0.00" type="DEFAULT_VEHTYPE" speed="1.51" pos="6.31" lane="-E32_0" slope="0.00"/>
    </timestep>
    <timestep time="4.80">
        <vehicle id="f_0_default.0" x="-282.09" y="95.20" angle="90.00" type="DEFAULT_VEHTYPE" speed="0.46" pos="17.91" lane="-E29_0" slope="0.00"/>
        <vehicle id="f_0_ego.0" x="-294.90" y="95.20" angle="90.00" type="EGO_VEHTYPE" speed="0.00" pos="5.10" lane="-E29_0" slope="0.00"/>
        <vehicle id="f_1_default.0" x="-95.20" y="-75.94" angle="0.00" type="DEFAULT_VEHTYPE" speed="7.69" pos="24.06" lane="-E32_0" slope="0.00"/>
        <vehicle id="f_1_default.1" x="-95.20" y="-90.73" angle="0.00" type="DEFAULT_VEHTYPE" speed="3.70" pos="9.27" lane="-E32_0" slope="0.00"/>
    </timestep>
    <timestep time="5.60">
        <vehicle id="f_0_default.0" x="-282.09" y="95.20" angle="90.00" type="DEFAULT_VEHTYPE" speed="0.00" pos="17.91" lane="-E29_0" slope="0.00"/>
        <vehicle id="f_0_default.1" x="-294.90" y="95.20" angle="90.00" type="DEFAULT_VEHTYPE" speed="0.00" pos="5.10" lane="-E29_0" slope="0.00"/>
        <vehicle id="f_1_default.0" x="-95.20" y="-68.23" angle="0.00" type="DEFAULT_VEHTYPE" speed="9.64" pos="31.77" lane="-E32_0" slope="0.00"/>
        <vehicle id="f_1_default.1" x="-95.20" y="-86.54" angle="0.00" type="DEFAULT_VEHTYPE" speed="5.24" pos="13.46" lane="-E32_0" slope="0.00"/>
        <vehicle id="f_1_default.2" x="-95.20" y="-94.90" angle="0.00" type="DEFAULT_VEHTYPE" speed="0.00" pos="5.10" lane="-E32_0" slope="0.00"/>
    </timestep>
    <timestep time="6.40">
        <vehicle id="f_0_default.0" x="-282.09" y="95.20" angle="90.00" type="DEFAULT_VEHTYPE" speed="0.00" pos="17.91" lane="-E29_0" slope="0.00"/>
        <vehicle id="f_0_default.1" x="-294.15" y="98.40" angle="90.00" type="DEFAULT_VEHTYPE" speed="0.94" pos="5.85" lane="-E29_1" slope="0.00"/>
        <vehicle id="f_0_ego.1" x="-294.90" y="95.20" angle="90.00" type="EGO_VEHTYPE" speed="0.00" pos="5.10" lane="-E29_0" slope="0.00"/>
        <vehicle id="f_1_default.0" x="-95.20" y="-58.68" angle="0.00" type="DEFAULT_VEHTYPE" speed="11.94" pos="41.32" lane="-E32_0" slope="0.00"/>
        <vehicle id="f_1_default.1" x="-95.20" y="-80.29" angle="0.00" type="DEFAULT_VEHTYPE" speed="7.81" pos="19.71" lane="-E32_0" slope="0.00"/>
        <vehicle id="f_1_default.2" x="-95.20" y="-92.77" angle="0.00" type="DEFAULT_VEHTYPE" speed="2.67" pos="7.23" lane="-E32_0" slope="0.00"/>
    </timestep>
    <timestep time="7.20">
        <vehicle id="f_0_default.0" x="-282.09" y="95.20" angle="90.00" type="DEFAULT_VEHTYPE" speed="0.00" pos="17.91" lane="-E29_0" slope="0.00"/>
        <vehicle id="f_0_default.1" x="-293.15" y="98.40" angle="90.00" type="DEFAULT_VEHTYPE" speed="1.24" pos="6.85" lane="-E29_1" slope="0.00"/>
        <vehicle id="f_0_ego.1" x="-294.90" y="95.20" angle="90.00" type="EGO_VEHTYPE" speed="0.00" pos="5.10" lane="-E29_0" slope="0.00"/>
        <vehicle id="f_1_default.0" x="-95.20" y="-47.40" angle="0.00" type="DEFAULT_VEHTYPE" speed="14.10" pos="52.60" lane="-E32_0" slope="0.00"/>
        <vehicle id="f_1_default.1" x="-95.20" y="-73.03" angle="0.00" type="DEFAULT_VEHTYPE" speed="9.09" pos="26.97" lane="-E32_0" slope="0.00"/>
        <vehicle id="f_1_default.2" x="-95.20" y="-88.95" angle="0.00" type="DEFAULT_VEHTYPE" speed="4.77" pos="11.05" lane="-E32_0" slope="0.00"/>
    </timestep>
    <timestep time="8.00">
        <vehicle id="f_0_default.1" x="-291.36" y="98.40" angle="90.00" type="DEFAULT_VEHTYPE" speed="2.24" pos="8.64" lane="-E29_1" slope="0.00"/>
        <vehicle id="f_0_ego.1" x="-294.90" y="95.20" angle="90.00" type="EGO_VEHTYPE" speed="0.00" pos="5.10" lane="-E29_0" slope="0.00"/>
        <vehicle id="f_1_default.0" x="-95.20" y="-35.54" angle="0.00" type="DEFAULT_VEHTYPE" speed="14.83" pos="64.46" lane="-E32_0" slope="0.00"/>
        <vehicle id="f_1_default.1" x="-95.20" y="-65.19" angle="0.00" type="DEFAULT_VEHTYPE" speed="9.80" pos="34.81" lane="-E32_0" slope="0.00"/>
        <vehicle id="f_1_default.2" x="-95.20" y="-83.86" angle="0.00" type="DEFAULT_VEHTYPE" speed="6.36" pos="16.14" lane="-E32_0" slope="0.00"/>
        <vehicle id="f_1_ego.0" x="-95.20" y="-94.90" angle="0.00" type="EGO_VEHTYPE" speed="0.00" pos="5.10" lane="-E32_0" slope="0.00"/>
    </timestep>
    <timestep time="8.80">
        <vehicle id="f_0_default.1" x="-288.27" y="98.40" angle="90.00" type="DEFAULT_VEHTYPE" speed="3.86" pos="11.73" lane="-E29_1" slope="0.00"/>
        <vehicle id="f_0_ego.1" x="-294.90" y="95.20" angle="90.00" type="EGO_VEHTYPE" speed="0.00" pos="5.10" lane="-E29_0" slope="0.00"/>
        <vehicle id="f_1_default.0" x="-95.20" y="-24.38" angle="0.00" type="DEFAULT_VEHTYPE" speed="13.95" pos="75.62" lane="-E32_0" slope="0.00"/>
        <vehicle id="f_1_default.1" x="-95.20" y="-56.47" angle="0.00" type="DEFAULT_VEHTYPE" speed="10.90" pos="43.53" lane="-E32_0" slope="0.00"/>
        <vehicle id="f_1_default.2" x="-95.20" y="-80.05" angle="0.00" type="DEFAULT_VEHTYPE" speed="4.76" pos="19.95" lane="-E32_0" slope="0.00"/>
        <vehicle id="f_1_ego.0" x="-95.20" y="-94.90" angle="0.00" type="EGO_VEHTYPE" speed="0.00" pos="5.10" lane="-E32_0" slope="0.00"/>
    </timestep>
    <timestep time="9.60">
        <vehicle id="f_0_default.1" x="-283.09" y="98.40" angle="90.00" type="DEFAULT_VEHTYPE" speed="6.48" pos="16.91" lane="-E29_1" slope="0.00"/>
        <vehicle id="f_0_default.2" x="-294.90" y="95.20" angle="90.00" type="DEFAULT_VEHTYPE" speed="0.00" pos="5.10" lane="-E29_0" slope="0.00"/>
        <vehicle id="f_1_default.0" x="-95.20" y="-13.87" angle="0.00" type="DEFAULT_VEHTYPE" speed="13.15" pos="86.13" lane="-E32_0" slope="0.00"/>
        <vehicle id="f_1_default.1" x="-95.20" y="-45.55" angle="0.00" type="DEFAULT_VEHTYPE" speed="13.65" pos="54.45" lane="-E32_0" slope="0.00"/>
        <vehicle id="f_1_default.2" x="-95.20" y="-77.52" angle="0.00" type="DEFAULT_VEHTYPE" speed="3.16" pos="22.48" lane="-E32_0" slope="0.00"/>
        <vehicle id="f_1_ego.0" x="-95.20" y="-94.90" angle="0.00" type="EGO_VEHTYPE" speed="0.00" pos="5.10" lane="-E32_0" slope="0.00"/>
    </timestep>
    <timestep time="10.40">
        <vehicle id="f_0_default.1" x="-276.20" y="98.40" angle="90.00" type="DEFAULT_VEHTYPE" speed="8.61" pos="23.80" lane="-E29_1" slope="0.00"/>
        <vehicle id="f_0_default.2" x="-293.26" y="95.20" angle="90.00" type="DEFAULT_VEHTYPE" speed="2.05" pos="6.74" lane="-E29_0" slope="0.00"/>
        <vehicle id="f_1_default.0" x="-93.09" y="-4.69" angle="25.23" type="DEFAULT_VEHTYPE" speed="12.30" pos="5.49" lane=":J5_0_0" slope="0.00"/>
        <vehicle id="f_1_default.1" x="-95.20" y="-35.59" angle="0.00" type="DEFAULT_VEHTYPE" speed="12.45" pos="64.41" lane="-E32_0" slope="0.00"/>
        <vehicle id="f_1_default.2" x="-98.40" y="-76.27" angle="0.00" type="DEFAULT_VEHTYPE" speed="1.56" pos="23.73" lane="-E32_1" slope="0.00"/>
        <vehicle id="f_1_ego.0" x="-95.20" y="-94.90" angle="0.00" type="EGO_VEHTYPE" speed="0.00" pos="5.10" lane="-E32_0" slope="0.00"/>
    </timestep>
    <timestep time="11.20">
        <vehicle id="f_0_default.1" x="-267.51" y="98.40" angle="90.00" type="DEFAULT_VEHTYPE" speed="10.87" pos="32.49" lane="-E29_1" slope="0.00"/>
        <vehicle id="f_0_default.2" x="-290.10" y="95.20" angle="90.00" type="DEFAULT_VEHTYPE" speed="3.95" pos="9.90" lane="-E29_0" slope="0.00"/>
        <vehicle id="f_1_default.0" x="-84.25" y="-2.37" angle="79.84" type="DEFAULT_VEHTYPE" speed="11.43" pos="5.90" lane="E28_0" slope="0.00"/>
        <vehicle id="f_1_default.1" x="-95.20" y="-26.91" angle="0.00" type="DEFAULT_VEHTYPE" speed="10.85" pos="73.09" lane="-E32_0" slope="0.00"/>
        <vehicle id="f_1_default.2" x="-98.40" y="-76.27" angle="0.00" type="DEFAULT_VEHTYPE" speed="0.00" pos="23.73" lane="-E32_1" slope="0.00"/>
        <vehicle id="f_1_ego.1" x="-95.20" y="-94.90" angle="0.00" type="EGO_VEHTYPE" speed="0.00" pos="5.10" lane="-E32_0" slope="0.00"/>
    </timestep>
    <timestep time="12.00">
        <vehicle id="f_0_default.1" x="-256.54" y="98.40" angle="90.00" type="DEFAULT_VEHTYPE" speed="13.71" pos="43.46" lane="-E29_1" slope="0.00"/>
        <vehicle id="f_0_default.2" x="-285.60" y="95.20" angle="90.00" type="DEFAULT_VEHTYPE" speed="5.62" pos="14.40" lane="-E29_0" slope="0.00"/>
        <vehicle id="f_0_ego.2" x="-294.90" y="95.20" angle="90.00" type="EGO_VEHTYPE" speed="0.00" pos="5.10" lane="-E29_0" slope="0.00"/>
        <vehicle id="f_1_default.0" x="-73.95" y="-0.15" angle="77.03" type="DEFAULT_VEHTYPE" speed="12.95" pos="16.27" lane="E28_0" slope="0.00"/>
        <vehicle id="f_1_default.1" x="-95.20" y="-18.47" angle="0.00" type="DEFAULT_VEHTYPE" speed="10.55" pos="81.53" lane="-E32_0" slope="0.00"/>
        <vehicle id="f_1_default.2" x="-98.40" y="-76.27" angle="0.00" type="DEFAULT_VEHTYPE" speed="0.00" pos="23.73" lane="-E32_1" slope="0.00"/>
        <vehicle id="f_1_ego.1" x="-95.20" y="-94.56" angle="0.00" type="EGO_VEHTYPE" speed="0.42" pos="5.44" lane="-E32_0" slope="0.00"/>
    </timestep>
    <timestep time="12.80">
        <vehicle id="f_0_default.1" x="-245.62" y="98.40" angle="90.00" type="DEFAULT_VEHTYPE" speed="13.64" pos="54.38" lane="-E29_1" slope="0.00"/>
        <vehicle id="f_0_default.2" x="-282.39" y="95.20" angle="90.00" type="DEFAULT_VEHTYPE" speed="4.02" pos="17.61" lane="-E29_0" slope="0.00"/>
        <vehicle id="f_0_ego.2" x="-294.90" y="95.20" angle="90.00" type="EGO_VEHTYPE" speed="0.00" pos="5.10" lane="-E29_0" slope="0.00"/>
        <vehicle id="f_1_default.0" x="-62.91" y="2.89" angle="73.48" type="DEFAULT_VEHTYPE" speed="14.08" pos="27.53" lane="E28_0" slope="0.00"/>
        <vehicle id="f_1_default.1" x="-95.20" y="-11.32" angle="0.00" type="DEFAULT_VEHTYPE" speed="8.95" pos="88.68" lane="-E32_0" slope="0.00"/>
        <vehicle id="f_1_default.2" x="-98.40" y="-76.27" angle="0.00" type="DEFAULT_VEHTYPE" speed="0.00" pos="23.73" lane="-E32_1" slope="0.00"/>
        <vehicle id="f_1_ego.1" x="-95.20" y="-93.23" angle="0.00" type="EGO_VEHTYPE" speed="1.66" pos="6.77" lane="-E32_0" slope="0.00"/>
    </timestep>
    <timestep time="13.60">
        <vehicle id="f_0_default.1" x="-235.99" y="98.40" angle="90.00" type="DEFAULT_VEHTYPE" speed="12.04" pos="64.01" lane="-E29_1" slope="0.00"/>
        <vehicle id="f_0_default.2" x="-280.45" y="95.20" angle="90.00" type="DEFAULT_VEHTYPE" speed="2.42" pos="19.55" lane="-E29_0" slope="0.00"/>
        <vehicle id="f_0_ego.2" x="-294.90" y="95.20" angle="90.00" type="EGO_VEHTYPE" speed="0.00" pos="5.10" lane="-E29_0" slope="0.00"/>
        <vehicle id="f_1_default.0" x="-50.84" y="7.21" angle="68.85" type="DEFAULT_VEHTYPE" speed="15.77" pos="40.15" lane="E28_0" slope="0.00"/>
        <vehicle id="f_1_default.1" x="-94.09" y="-5.66" angle="13.05" type="DEFAULT_VEHTYPE" speed="7.35" pos="4.08" lane=":J5_0_0" slope="0.00"/>
        <vehicle id="f_1_default.2" x="-98.40" y="-76.27" angle="0.00" type="DEFAULT_VEHTYPE" speed="0.00" pos="23.73" lane="-E32_1" slope="0.00"/>
        <vehicle id="f_1_ego.1" x="-95.20" y="-90.25" angle="0.00" type="EGO_VEHTYPE" speed="3.73" pos="9.75" lane="-E32_0" slope="0.00"/>
    </timestep>
    <timestep time="14.40">
        <vehicle id="f_0_default.1" x="-227.64" y="98.40" angle="90.00" type="DEFAULT_VEHTYPE" speed="10.44" pos="72.36" lane="-E29_1" slope="0.00"/>
        <vehicle id="f_0_default.2" x="-279.79" y="95.20" angle="90.00" type="DEFAULT_VEHTYPE" speed="0.82" pos="20.21" lane="-E29_0" slope="0.00"/>
        <vehicle id="f_0_ego.2" x="-294.90" y="95.20" angle="90.00" type="EGO_VEHTYPE" speed="0.00" pos="5.10" lane="-E29_0" slope="0.00"/>
        <vehicle id="f_1_default.0" x="-37.41" y="13.68" angle="61.89" type="DEFAULT_VEHTYPE" speed="18.33" pos="54.81" lane="E28_0" slope="0.00"/>
        <vehicle id="f_1_default.1" x="-87.93" y="-3.04" angle="74.12" type="DEFAULT_VEHTYPE" speed="8.59" pos="2.22" lane="E28_0" slope="0.00"/>
        <vehicle id="f_1_default.2" x="-98.40" y="-76.27" angle="0.00" type="DEFAULT_VEHTYPE" speed="0.00" pos="23.73" lane="-E32_1" slope="0.00"/>
        <vehicle id="f_1_ego.1" x="-95.20" y="-85.40" angle="0.00" type="EGO_VEHTYPE" speed="6.06" pos="14.60" lane="-E32_0" slope="0.00"/>
        <vehicle id="f_1_ego.2" x="-95.20" y="-94.90" angle="0.00" type="EGO_VEHTYPE" speed="0.00" pos="5.10" lane="-E32_0" slope="0.00"/>
    </timestep>
    <timestep time="15.20">
        <vehicle id="f_0_default.1" x="-218.65" y="98.40" angle="90.00" type="DEFAULT_VEHTYPE" speed="11.23" pos="81.35" lane="-E29_1" slope="0.00"/>
        <vehicle id="f_0_default.2" x="-279.79" y="95.20" angle="90.00" type="DEFAULT_VEHTYPE" speed="0.00" pos="20.21" lane="-E29_0" slope="0.00"/>
        <vehicle id="f_0_default.3" x="-294.90" y="95.20" angle="90.00" type="DEFAULT_VEHTYPE" speed="0.00" pos="5.10" lane="-E29_0" slope="0.00"/>
        <vehicle id="f_1_default.0" x="-25.61" y="21.47" angle="53.82" type="DEFAULT_VEHTYPE" speed="17.39" pos="68.73" lane="E28_0" slope="0.00"/>
        <vehicle id="f_1_default.1" x="-79.91" y="-1.52" angle="78.92" type="DEFAULT_VEHTYPE" speed="10.04" pos="10.25" lane="E28_0" slope="0.00"/>
        <vehicle id="f_1_default.2" x="-98.40" y="-76.27" angle="0.00" type="DEFAULT_VEHTYPE" speed="0.00" pos="23.73" lane="-E32_1" slope="0.00"/>
        <vehicle id="f_1_ego.1" x="-95.20" y="-81.83" angle="0.00" type="EGO_VEHTYPE" speed="4.46" pos="18.17" lane="-E32_0" slope="0.00"/>
        <vehicle id="f_1_ego.2" x="-95.20" y="-94.90" angle="0.00" type="EGO_VEHTYPE" speed="0.00" pos="5.10" lane="-E32_0" slope="0.00"/>
    </timestep>
    <timestep time="16.00">
        <vehicle id="f_0_default.1" x="-210.82" y="98.40" angle="90.00" type="DEFAULT_VEHTYPE" speed="9.79" pos="89.18" lane="-E29_1" slope="0.00"/>
        <vehicle id="f_0_default.2" x="-279.79" y="95.20" angle="90.00" type="DEFAULT_VEHTYPE" speed="0.00" pos="20.21" lane="-E29_0" slope="0.00"/>
        <vehicle id="f_0_default.3" x="-293.71" y="98.40" angle="90.00" type="DEFAULT_VEHTYPE" speed="1.49" pos="6.29" lane="-E29_1" slope="0.00"/>
        <vehicle id="f_0_ego.3" x="-294.90" y="95.20" angle="90.00" type="EGO_VEHTYPE" speed="0.00" pos="5.10" lane="-E29_0" slope="0.00"/>
        <vehicle id="f_1_default.0" x="-15.97" y="30.20" angle="45.14" type="DEFAULT_VEHTYPE" speed="16.00" pos="81.53" lane="E28_0" slope="0.00"/>
        <vehicle id="f_1_default.1" x="-70.81" y="0.63" angle="76.19" type="DEFAULT_VEHTYPE" speed="11.49" pos="19.44" lane="E28_0" slope="0.00"/>
        <vehicle id="f_1_default.2" x="-98.40" y="-76.27" angle="0.00" type="DEFAULT_VEHTYPE" speed="0.00" pos="23.73" lane="-E32_1" slope="0.00"/>
        <vehicle id="f_1_ego.1" x="-95.20" y="-79.54" angle="0.00" type="EGO_VEHTYPE" speed="2.86" pos="20.46" lane="-E32_0" slope="0.00"/>
        <vehicle id="f_1_ego.2" x="-95.20" y="-94.90" angle="0.00" type="EGO_VEHTYPE" speed="0.00" pos="5.10" lane="-E32_0" slope="0.00"/>
    </timestep>
    <timestep time="16.80">
        <vehicle id="f_0_default.1" x="-204.62" y="96.69" angle="108.33" type="DEFAULT_VEHTYPE" speed="8.19" pos="6.21" lane=":J4_0_1" slope="0.00"/>
        <vehicle id="f_0_default.2" x="-279.79" y="95.20" angle="90.00" type="DEFAULT_VEHTYPE" speed="0.00" pos="20.21" lane="-E29_0" slope="0.00"/>
        <vehicle id="f_0_default.3" x="-292.02" y="98.40" angle="90.00" type="DEFAULT_VEHTYPE" speed="2.11" pos="7.98" lane="-E29_1" slope="0.00"/>
        <vehicle id="f_0_ego.3" x="-294.56" y="95.20" angle="90.00" type="EGO_VEHTYPE" speed="0.42" pos="5.44" lane="-E29_0" slope="0.00"/>
        <vehicle id="f_1_default.0" x="-8.36" y="39.70" angle="35.99" type="DEFAULT_VEHTYPE" speed="14.98" pos="93.52" lane="E28_0" slope="0.00"/>
        <vehicle id="f_1_default.1" x="-60.94" y="3.52" angle="72.73" type="DEFAULT_VEHTYPE" speed="12.65" pos="29.57" lane="E28_0" slope="0.00"/>
        <vehicle id="f_1_default.2" x="-98.40" y="-76.27" angle="0.00" type="DEFAULT_VEHTYPE" speed="0.00" pos="23.73" lane="-E32_1" slope="0.00"/>
        <vehicle id="f_1_ego.1" x="-95.20" y="-78.53" angle="0.00" type="EGO_VEHTYPE" speed="1.26" pos="21.47" lane="-E32_0" slope="0.00"/>
        <vehicle id="f_1_ego.2" x="-95.20" y="-94.90" angle="0.00" type="EGO_VEHTYPE" speed="0.00" pos="5.10" lane="-E32_0" slope="0.00"/>
    </timestep>
    <timestep time="17.60">
        <vehicle id="f_0_default.1" x="-201.43" y="90.97" angle="157.15" type="DEFAULT_VEHTYPE" speed="8.50" pos="13.01" lane=":J4_0_1" slope="0.00"/>
        <vehicle id="f_0_default.3" x="-288.11" y="98.40" angle="90.00" type="DEFAULT_VEHTYPE" speed="4.89" pos="11.89" lane="-E29_1" slope="0.00"/>
        <vehicle id="f_0_ego.3" x="-293.23" y="95.20" angle="90.00" type="EGO_VEHTYPE" speed="1.66" pos="6.77" lane="-E29_0" slope="0.00"/>
        <vehicle id="f_1_default.0" x="-2.94" y="49.13" angle="27.66" type="DEFAULT_VEHTYPE" speed="13.38" pos="104.22" lane="E28_0" slope="0.00"/>
        <vehicle id="f_1_default.1" x="-49.86" y="7.61" angle="68.57" type="DEFAULT_VEHTYPE" speed="14.52" pos="41.18" lane="E28_0" slope="0.00"/>
        <vehicle id="f_1_default.2" x="-98.40" y="-76.27" angle="0.00" type="DEFAULT_VEHTYPE" speed="0.00" pos="23.73" lane="-E32_1" slope="0.00"/>
        <vehicle id="f_1_ego.1" x="-95.20" y="-78.53" angle="0.00" type="EGO_VEHTYPE" speed="0.00" pos="21.47" lane="-E32_0" slope="0.00"/>
        <vehicle id="f_1_ego.3" x="-95.20" y="-94.90" angle="0.00" type="EGO_VEHTYPE" speed="0.00" pos="5.10" lane="-E32_0" slope="0.00"/>
    </timestep>
    <timestep time="18.40">
        <vehicle id="f_0_default.1" x="-200.77" y="85.57" angle="173.58" type="DEFAULT_VEHTYPE" speed="6.90" pos="4.22" lane="E27_1" slope="0.00"/>
        <vehicle id="f_0_default.3" x="-283.31" y="98.40" angle="90.00" type="DEFAULT_VEHTYPE" speed="6.00" pos="16.69" lane="-E29_1" slope="0.00"/>
        <vehicle id="f_0_ego.3" x="-290.24" y="95.20" angle="90.00" type="EGO_VEHTYPE" speed="3.74" pos="9.76" lane="-E29_0" slope="0.00"/>
        <vehicle id="f_1_default.0" x="0.67" y="58.00" angle="20.49" type="DEFAULT_VEHTYPE" speed="11.78" pos="113.65" lane="E28_0" slope="0.00"/>
        <vehicle id="f_1_default.1" x="-38.42" y="13.12" angle="62.50" type="DEFAULT_VEHTYPE" speed="15.63" pos="53.68" lane="E28_0" slope="0.00"/>
        <vehicle id="f_1_default.2" x="-98.40" y="-76.27" angle="0.00" type="DEFAULT_VEHTYPE" speed="0.00" pos="23.73" lane="-E32_1" slope="0.00"/>
        <vehicle id="f_1_ego.1" x="-95.20" y="-78.53" angle="0.00" type="EGO_VEHTYPE" speed="0.00" pos="21.47" lane="-E32_0" slope="0.00"/>
        <vehicle id="f_1_ego.3" x="-95.20" y="-94.56" angle="0.00" type="EGO_VEHTYPE" speed="0.42" pos="5.44" lane="-E32_0" slope="0.00"/>
    </timestep>
    <timestep time="19.20">
        <vehicle id="f_0_default.1" x="-200.01" y="79.62" angle="172.50" type="DEFAULT_VEHTYPE" speed="7.63" pos="10.33" lane="E27_1" slope="0.00"/>
        <vehicle id="f_0_default.3" x="-277.28" y="98.40" angle="90.00" type="DEFAULT_VEHTYPE" speed="7.54" pos="22.72" lane="-E29_1" slope="0.00"/>
        <vehicle id="f_0_default.4" x="-294.90" y="95.20" angle="90.00" type="DEFAULT_VEHTYPE" speed="0.00" pos="5.10" lane="-E29_0" slope="0.00"/>
        <vehicle id="f_0_ego.3" x="-285.05" y="95.20" angle="90.00" type="EGO_VEHTYPE" speed="6.49" pos="14.95" lane="-E29_0" slope="0.00"/>
        <vehicle id="f_1_default.0" x="2.92" y="65.97" angle="14.73" type="DEFAULT_VEHTYPE" speed="10.18" pos="121.79" lane="E28_0" slope="0.00"/>
        <vehicle id="f_1_default.1" x="-27.50" y="20.04" angle="55.30" type="DEFAULT_VEHTYPE" speed="15.90" pos="66.40" lane="E28_0" slope="0.00"/>
        <vehicle id="f_1_default.2" x="-98.40" y="-76.27" angle="0.00" type="DEFAULT_VEHTYPE" speed="0.00" pos="23.73" lane="-E32_1" slope="0.00"/>
        <vehicle id="f_1_ego.1" x="-95.20" y="-78.53" angle="0.00" type="EGO_VEHTYPE" speed="0.00" pos="21.47" lane="-E32_0" slope="0.00"/>
        <vehicle id="f_1_ego.3" x="-95.20" y="-93.23" angle="0.00" type="EGO_VEHTYPE" speed="1.66" pos="6.77" lane="-E32_0" slope="0.00"/>
    </timestep>
    <timestep time="20.00">
        <vehicle id="f_0_default.1" x="-201.86" y="71.83" angle="169.33" type="DEFAULT_VEHTYPE" speed="9.23" pos="17.71" lane="E27_0" slope="0.00"/>
        <vehicle id="f_0_default.3" x="-269.90" y="98.40" angle="90.00" type="DEFAULT_VEHTYPE" speed="9.22" pos="30.10" lane="-E29_1" slope="0.00"/>
        <vehicle id="f_0_default.4" x="-292.73" y="95.20" angle="90.00" type="DEFAULT_VEHTYPE" speed="2.71" pos="7.27" lane="-E29_0" slope="0.00"/>
        <vehicle id="f_0_ego.3" x="-278.09" y="95.20" angle="90.00" type="EGO_VEHTYPE" speed="8.70" pos="21.91" lane="-E29_0" slope="0.00"/>
        <vehicle id="f_1_default.0" x="4.21" y="72.83" angle="10.13" type="DEFAULT_VEHTYPE" speed="8.58" pos="128.66" lane="E28_0" slope="0.00"/>
        <vehicle id="f_1_default.1" x="-18.46" y="27.67" angle="47.53" type="DEFAULT_VEHTYPE" speed="14.55" pos="78.04" lane="E28_0" slope="0.00"/>
        <vehicle id="f_1_default.2" x="-95.20" y="-76.27" angle="0.00" type="DEFAULT_VEHTYPE" speed="0.00" pos="23.73" lane="-E32_0" slope="0.00"/>
        <vehicle id="f_1_ego.3" x="-95.20" y="-90.76" angle="0.00" type="EGO_VEHTYPE" speed="3.09" pos="9.24" lane="-E32_0" slope="0.00"/>
    </timestep>
    <timestep time="20.80">
        <vehicle id="f_0_default.1" x="-199.74" y="63.42" angle="164.95" type="DEFAULT_VEHTYPE" speed="10.67" pos="26.25" lane="E27_0" slope="0.00"/>
        <vehicle id="f_0_default.3" x="-260.82" y="98.40" angle="90.00" type="DEFAULT_VEHTYPE" speed="11.35" pos="39.18" lane="-E29_1" slope="0.00"/>
        <vehicle id="f_0_default.4" x="-289.85" y="95.20" angle="90.00" type="DEFAULT_VEHTYPE" speed="3.60" pos="10.15" lane="-E29_0" slope="0.00"/>
        <vehicle id="f_0_ego.3" x="-270.91" y="95.20" angle="90.00" type="EGO_VEHTYPE" speed="8.97" pos="29.09" lane="-E29_0" slope="0.00"/>
        <vehicle id="f_1_default.0" x="4.89" y="78.47" angle="6.64" type="DEFAULT_VEHTYPE" speed="6.98" pos="134.24" lane="E28_0" slope="0.00"/>
        <vehicle id="f_1_default.1" x="-11.03" y="36.00" angle="39.50" type="DEFAULT_VEHTYPE" speed="13.73" pos="89.03" lane="E28_0" slope="0.00"/>
        <vehicle id="f_1_default.2" x="-95.20" y="-76.27" angle="0.00" type="DEFAULT_VEHTYPE" speed="0.00" pos="23.73" lane="-E32_0" slope="0.00"/>
        <vehicle id="f_1_ego.3" x="-95.20" y="-87.88" angle="0.00" type="EGO_VEHTYPE" speed="3.60" pos="12.12" lane="-E32_0" slope="0.00"/>
    </timestep>
    <timestep time="21.60">
        <vehicle id="f_0_default.1" x="-196.18" y="53.29" angle="159.02" type="DEFAULT_VEHTYPE" speed="13.21" pos="36.81" lane="E27_0" slope="0.00"/>
        <vehicle id="f_0_default.3" x="-250.41" y="98.40" angle="90.00" type="DEFAULT_VEHTYPE" speed="13.01" pos="49.59" lane="-E29_1" slope="0.00"/>
        <vehicle id="f_0_default.4" x="-286.30" y="95.20" angle="90.00" type="DEFAULT_VEHTYPE" speed="4.44" pos="13.70" lane="-E29_0" slope="0.00"/>
        <vehicle id="f_0_ego.3" x="-265.02" y="95.20" angle="90.00" type="EGO_VEHTYPE" speed="7.37" pos="34.98" lane="-E29_0" slope="0.00"/>
        <vehicle id="f_0_ego.4" x="-294.90" y="95.20" angle="90.00" type="EGO_VEHTYPE" speed="0.00" pos="5.10" lane="-E29_0" slope="0.00"/>
        <vehicle id="f_1_default.0" x="5.19" y="82.83" angle="4.17" type="DEFAULT_VEHTYPE" speed="5.38" pos="138.55" lane="E28_0" slope="0.00"/>
        <vehicle id="f_1_default.1" x="-4.95" y="45.27" angle="30.94" type="DEFAULT_VEHTYPE" speed="13.65" pos="99.95" lane="E28_0" slope="0.00"/>
        <vehicle id="f_1_default.2" x="-95.20" y="-76.27" angle="0.00" type="DEFAULT_VEHTYPE" speed="0.00" pos="23.73" lane="-E32_0" slope="0.00"/>
        <vehicle id="f_1_default.3" x="-95.20" y="-94.90" angle="0.00" type="DEFAULT_VEHTYPE" speed="0.00" pos="5.10" lane="-E32_0" slope="0.00"/>
        <vehicle id="f_1_ego.3" x="-95.20" y="-86.65" angle="0.00" type="EGO_VEHTYPE" speed="1.54" pos="13.35" lane="-E32_0" slope="0.00"/>
    </timestep>
    <timestep time="22.40">
        <vehicle id="f_0_default.1" x="-191.48" y="43.60" angle="152.36" type="DEFAULT_VEHTYPE" speed="13.25" pos="47.42" lane="E27_0" slope="0.00"/>
        <vehicle id="f_0_default.3" x="-238.22" y="98.40" angle="90.00" type="DEFAULT_VEHTYPE" speed="15.24" pos="61.78" lane="-E29_1" slope="0.00"/>
        <vehicle id="f_0_default.4" x="-284.03" y="95.20" angle="90.00" type="DEFAULT_VEHTYPE" speed="2.84" pos="15.97" lane="-E29_0" slope="0.00"/>
        <vehicle id="f_0_ego.3" x="-260.41" y="95.20" angle="90.00" type="EGO_VEHTYPE" speed="5.77" pos="39.59" lane="-E29_0" slope="0.00"/>
        <vehicle id="f_0_ego.4" x="-294.90" y="95.20" angle="90.00" type="EGO_VEHTYPE" speed="0.00" pos="5.10" lane="-E29_0" slope="0.00"/>
        <vehicle id="f_1_default.0" x="5.32" y="85.91" angle="2.58" type="DEFAULT_VEHTYPE" speed="3.78" pos="141.58" lane="E28_0" slope="0.00"/>
        <vehicle id="f_1_default.1" x="-0.75" y="54.13" angle="23.50" type="DEFAULT_VEHTYPE" speed="12.05" pos="109.59" lane="E28_0" slope="0.00"/>
        <vehicle id="f_1_default.2" x="-95.20" y="-76.27" angle="0.00" type="DEFAULT_VEHTYPE" speed="0.00" pos="23.73" lane="-E32_0" slope="0.00"/>
        <vehicle id="f_1_default.3" x="-98.40" y="-93.98" angle="0.00" type="DEFAULT_VEHTYPE" speed="1.14" pos="6.02" lane="-E32_1" slope="0.00"/>
        <vehicle id="f_1_ego.3" x="-95.20" y="-85.93" angle="0.00" type="EGO_VEHTYPE" speed="0.90" pos="14.07" lane="-E32_0" slope="0.00"/>
        <vehicle id="f_1_ego.4" x="-95.20" y="-94.90" angle="0.00" type="EGO_VEHTYPE" speed="0.00" pos="5.10" lane="-E32_0" slope="0.00"/>
    </timestep>
    <timestep time="23.20">
        <vehicle id="f_0_default.1" x="-186.19" y="35.32" angle="145.71" type="DEFAULT_VEHTYPE" speed="12.10" pos="57.09" lane="E27_0" slope="0.00"/>