<?xml version="1.0" encoding="UTF-8"?>

<!-- generated on 2023-12-12 13:03:19 by Eclipse SUMO sumo Version 1.18.0
<configuration xmlns:xsi="http://www.w3.org/2001/XMLSchema-instance" xsi:noNamespaceSchemaLocation="http://sumo.dlr.de/xsd/sumoConfiguration.xsd">

    <input>
        <net-file value="intersec.net.xml"/>
        <route-files value="intersec.rou.xml"/>
    </input>

    <output>
        <emission-output value="output/em_op.xml"/>
        <fcd-output value="output/fcd_op.xml"/>
        <fcd-output.signals value="true"/>
        <fcd-output.distance value="true"/>
        <fcd-output.acceleration value="true"/>
        <full-output value="output/full_op.xml"/>
        <summary-output value="output/sum_op.xml"/>
        <lanechange-output value="output/lane_change_op.xml"/>
        <lanechange-output.started value="true"/>
        <lanechange-output.ended value="true"/>
        <lanechange-output.xy value="true"/>
        <collision-output value="output/collisions.xml"/>
        <statistic-output value="output/stats.xml"/>
    </output>

    <time>
        <step-length value="0.1"/>
    </time>

    <processing>
        <collision.action value="remove"/>
        <collision.stoptime value="2.00"/>
        <collision.check-junctions value="true"/>
    </processing>

    <report>
        <log value="simulation_main.log"/>
    </report>

    <traci_server>
        <remote-port value="50887"/>
    </traci_server>

    <random_number>
        <random value="true"/>
    </random_number>

</configuration>
-->

<fcd-export xmlns:xsi="http://www.w3.org/2001/XMLSchema-instance" xsi:noNamespaceSchemaLocation="http://sumo.dlr.de/xsd/fcd_file.xsd">
    <timestep time="0.00">
        <vehicle id="non_ego_flow.0" x="244.90" y="4.80" angle="270.00" type="non-ego" speed="0.00" pos="5.10" lane="-E6_0" slope="0.00" signals="0" acceleration="0.00" distance="5.10"/>
    </timestep>
    <timestep time="0.10">
        <vehicle id="non_ego_flow.0" x="244.90" y="4.80" angle="270.00" type="non-ego" speed="0.01" pos="5.10" lane="-E6_0" slope="0.00" signals="8" acceleration="0.15" distance="5.10"/>
    </timestep>
    <timestep time="0.20">
        <vehicle id="non_ego_flow.0" x="244.89" y="4.80" angle="270.00" type="non-ego" speed="0.04" pos="5.11" lane="-E6_0" slope="0.00" signals="8" acceleration="0.28" distance="5.11"/>
    </timestep>
    <timestep time="0.30">
        <vehicle id="non_ego_flow.0" x="244.89" y="4.80" angle="270.00" type="non-ego" speed="0.09" pos="5.11" lane="-E6_0" slope="0.00" signals="8" acceleration="0.49" distance="5.11"/>
    </timestep>
    <timestep time="0.40">
        <vehicle id="non_ego_flow.0" x="244.87" y="4.80" angle="270.00" type="non-ego" speed="0.17" pos="5.13" lane="-E6_0" slope="0.00" signals="0" acceleration="0.81" distance="5.13"/>
    </timestep>
    <timestep time="0.50">
        <vehicle id="non_ego_flow.0" x="244.84" y="4.80" angle="270.00" type="non-ego" speed="0.29" pos="5.16" lane="-E6_0" slope="0.00" signals="0" acceleration="1.21" distance="5.16"/>
    </timestep>
    <timestep time="0.60">
        <vehicle id="non_ego_flow.0" x="244.79" y="4.80" angle="270.00" type="non-ego" speed="0.46" pos="5.21" lane="-E6_0" slope="0.00" signals="0" acceleration="1.64" distance="5.21"/>
    </timestep>
    <timestep time="0.70">
        <vehicle id="non_ego_flow.0" x="244.73" y="4.80" angle="270.00" type="non-ego" speed="0.66" pos="5.27" lane="-E6_0" slope="0.00" signals="0" acceleration="2.00" distance="5.27"/>
    </timestep>
    <timestep time="0.80">
        <vehicle id="non_ego_flow.0" x="244.64" y="4.80" angle="270.00" type="non-ego" speed="0.88" pos="5.36" lane="-E6_0" slope="0.00" signals="0" acceleration="2.25" distance="5.36"/>
    </timestep>
    <timestep time="0.90">
        <vehicle id="non_ego_flow.0" x="244.53" y="4.80" angle="270.00" type="non-ego" speed="1.12" pos="5.47" lane="-E6_0" slope="0.00" signals="0" acceleration="2.41" distance="5.47"/>
    </timestep>
    <timestep time="1.00">
        <vehicle id="non_ego_flow.0" x="244.39" y="4.80" angle="270.00" type="non-ego" speed="1.37" pos="5.61" lane="-E6_0" slope="0.00" signals="0" acceleration="2.50" distance="5.61"/>
    </timestep>
    <timestep time="1.10">
        <vehicle id="non_ego_flow.0" x="244.23" y="4.80" angle="270.00" type="non-ego" speed="1.63" pos="5.77" lane="-E6_0" slope="0.00" signals="0" acceleration="2.55" distance="5.77"/>
    </timestep>
    <timestep time="1.20">
        <vehicle id="non_ego_flow.0" x="244.04" y="4.80" angle="270.00" type="non-ego" speed="1.88" pos="5.96" lane="-E6_0" slope="0.00" signals="0" acceleration="2.57" distance="5.96"/>
    </timestep>
    <timestep time="1.30">
        <vehicle id="non_ego_flow.0" x="243.82" y="4.80" angle="270.00" type="non-ego" speed="2.14" pos="6.18" lane="-E6_0" slope="0.00" signals="0" acceleration="2.59" distance="6.18"/>
    </timestep>
    <timestep time="1.40">
        <vehicle id="non_ego_flow.0" x="243.58" y="4.80" angle="270.00" type="non-ego" speed="2.40" pos="6.42" lane="-E6_0" slope="0.00" signals="0" acceleration="2.60" distance="6.42"/>
    </timestep>
    <timestep time="1.50">
        <vehicle id="non_ego_flow.0" x="243.32" y="4.80" angle="270.00" type="non-ego" speed="2.66" pos="6.68" lane="-E6_0" slope="0.00" signals="0" acceleration="2.60" distance="6.68"/>
    </timestep>
    <timestep time="1.60">
        <vehicle id="non_ego_flow.0" x="243.03" y="4.80" angle="270.00" type="non-ego" speed="2.92" pos="6.97" lane="-E6_0" slope="0.00" signals="0" acceleration="2.60" distance="6.97"/>
    </timestep>
    <timestep time="1.70">
        <vehicle id="non_ego_flow.0" x="242.71" y="4.80" angle="270.00" type="non-ego" speed="3.18" pos="7.29" lane="-E6_0" slope="0.00" signals="0" acceleration="2.60" distance="7.29"/>
    </timestep>
    <timestep time="1.80">
        <vehicle id="non_ego_flow.0" x="242.37" y="4.80" angle="270.00" type="non-ego" speed="3.41" pos="7.63" lane="-E6_0" slope="0.00" signals="0" acceleration="2.32" distance="7.63"/>
    </timestep>
    <timestep time="1.90">
        <vehicle id="non_ego_flow.0" x="242.00" y="4.80" angle="270.00" type="non-ego" speed="3.63" pos="8.00" lane="-E6_0" slope="0.00" signals="0" acceleration="2.11" distance="8.00"/>
    </timestep>
    <timestep time="2.00">
        <vehicle id="non_ego_flow.0" x="241.62" y="4.80" angle="270.00" type="non-ego" speed="3.85" pos="8.38" lane="-E6_0" slope="0.00" signals="0" acceleration="2.22" distance="8.38"/>
        <vehicle id="non_ego_flow.1" x="-194.90" y="-4.80" angle="90.00" type="non-ego" speed="0.00" pos="5.10" lane="E0_0" slope="0.00" signals="0" acceleration="0.00" distance="5.10"/>
    </timestep>
    <timestep time="2.10">
        <vehicle id="non_ego_flow.0" x="241.21" y="4.80" angle="270.00" type="non-ego" speed="4.07" pos="8.79" lane="-E6_0" slope="0.00" signals="0" acceleration="2.27" distance="8.79"/>
        <vehicle id="non_ego_flow.1" x="-194.90" y="-4.80" angle="90.00" type="non-ego" speed="0.01" pos="5.10" lane="E0_0" slope="0.00" signals="8" acceleration="0.15" distance="5.10"/>
    </timestep>
    <timestep time="2.20">
        <vehicle id="non_ego_flow.0" x="240.78" y="4.80" angle="270.00" type="non-ego" speed="4.30" pos="9.22" lane="-E6_0" slope="0.00" signals="0" acceleration="2.22" distance="9.22"/>
        <vehicle id="non_ego_flow.1" x="-194.89" y="-4.80" angle="90.00" type="non-ego" speed="0.04" pos="5.11" lane="E0_0" slope="0.00" signals="8" acceleration="0.28" distance="5.11"/>
    </timestep>
    <timestep time="2.30">
        <vehicle id="non_ego_flow.0" x="240.33" y="4.80" angle="270.00" type="non-ego" speed="4.52" pos="9.67" lane="-E6_0" slope="0.00" signals="0" acceleration="2.22" distance="9.67"/>
        <vehicle id="non_ego_flow.1" x="-194.89" y="-4.80" angle="90.00" type="non-ego" speed="0.09" pos="5.11" lane="E0_0" slope="0.00" signals="8" acceleration="0.49" distance="5.11"/>
    </timestep>
    <timestep time="2.40">
        <vehicle id="non_ego_flow.0" x="239.85" y="4.80" angle="270.00" type="non-ego" speed="4.76" pos="10.15" lane="-E6_0" slope="0.00" signals="0" acceleration="2.37" distance="10.15"/>
        <vehicle id="non_ego_flow.1" x="-194.87" y="-4.80" angle="90.00" type="non-ego" speed="0.17" pos="5.13" lane="E0_0" slope="0.00" signals="0" acceleration="0.81" distance="5.13"/>
    </timestep>
    <timestep time="2.50">
        <vehicle id="non_ego_flow.0" x="239.35" y="4.80" angle="270.00" type="non-ego" speed="5.01" pos="10.65" lane="-E6_0" slope="0.00" signals="0" acceleration="2.58" distance="10.65"/>
        <vehicle id="non_ego_flow.1" x="-194.84" y="-4.80" angle="90.00" type="non-ego" speed="0.29" pos="5.16" lane="E0_0" slope="0.00" signals="0" acceleration="1.21" distance="5.16"/>
    </timestep>
    <timestep time="2.60">
        <vehicle id="ego_vehicle" x="244.90" y="4.80" angle="270.00" type="ego" speed="0.00" pos="5.10" lane="-E6_0" slope="0.00" signals="0" acceleration="0.00" distance="5.10"/>
        <vehicle id="non_ego_flow.0" x="238.83" y="4.80" angle="270.00" type="non-ego" speed="5.26" pos="11.17" lane="-E6_0" slope="0.00" signals="0" acceleration="2.46" distance="11.17"/>
        <vehicle id="non_ego_flow.1" x="-194.79" y="-4.80" angle="90.00" type="non-ego" speed="0.46" pos="5.21" lane="E0_0" slope="0.00" signals="0" acceleration="1.64" distance="5.21"/>
    </timestep>
    <timestep time="2.70">
        <vehicle id="ego_vehicle" x="244.90" y="1.60" angle="270.00" type="ego" speed="0.00" pos="5.10" lane="-E6_1" slope="0.00" signals="8" acceleration="0.00" distance="5.10"/>
        <vehicle id="non_ego_flow.0" x="238.28" y="4.80" angle="270.00" type="non-ego" speed="5.50" pos="11.72" lane="-E6_0" slope="0.00" signals="0" acceleration="2.37" distance="11.72"/>
        <vehicle id="non_ego_flow.1" x="-194.73" y="-4.80" angle="90.00" type="non-ego" speed="0.66" pos="5.27" lane="E0_0" slope="0.00" signals="0" acceleration="2.00" distance="5.27"/>
    </timestep>
    <timestep time="2.80">
        <vehicle id="ego_vehicle" x="244.88" y="1.60" angle="270.00" type="ego" speed="0.24" pos="5.12" lane="-E6_1" slope="0.00" signals="0" acceleration="2.43" distance="5.12"/>
        <vehicle id="non_ego_flow.0" x="237.70" y="4.80" angle="270.00" type="non-ego" speed="5.72" pos="12.30" lane="-E6_0" slope="0.00" signals="0" acceleration="2.24" distance="12.30"/>
        <vehicle id="non_ego_flow.1" x="-194.64" y="-4.80" angle="90.00" type="non-ego" speed="0.88" pos="5.36" lane="E0_0" slope="0.00" signals="0" acceleration="2.25" distance="5.36"/>
    </timestep>
    <timestep time="2.90">
        <vehicle id="ego_vehicle" x="244.81" y="1.60" angle="270.00" type="ego" speed="0.66" pos="5.19" lane="-E6_1" slope="0.00" signals="0" acceleration="4.21" distance="5.19"/>
        <vehicle id="non_ego_flow.0" x="237.11" y="4.80" angle="270.00" type="non-ego" speed="5.94" pos="12.89" lane="-E6_0" slope="0.00" signals="0" acceleration="2.23" distance="12.89"/>
        <vehicle id="non_ego_flow.1" x="-194.53" y="-4.80" angle="90.00" type="non-ego" speed="1.12" pos="5.47" lane="E0_0" slope="0.00" signals="0" acceleration="2.41" distance="5.47"/>
    </timestep>
    <timestep time="3.00">
        <vehicle id="ego_vehicle" x="244.69" y="1.60" angle="270.00" type="ego" speed="1.16" pos="5.31" lane="-E6_1" slope="0.00" signals="0" acceleration="4.95" distance="5.31"/>
        <vehicle id="non_ego_flow.0" x="236.49" y="4.80" angle="270.00" type="non-ego" speed="6.16" pos="13.51" lane="-E6_0" slope="0.00" signals="0" acceleration="2.13" distance="13.51"/>
        <vehicle id="non_ego_flow.1" x="-194.39" y="-4.80" angle="90.00" type="non-ego" speed="1.37" pos="5.61" lane="E0_0" slope="0.00" signals="0" acceleration="2.50" distance="5.61"/>
    </timestep>
    <timestep time="3.10">
        <vehicle id="ego_vehicle" x="244.52" y="1.60" angle="270.00" type="ego" speed="1.69" pos="5.48" lane="-E6_1" slope="0.00" signals="0" acceleration="5.25" distance="5.48"/>
        <vehicle id="non_ego_flow.0" x="235.86" y="4.80" angle="270.00" type="non-ego" speed="6.37" pos="14.14" lane="-E6_0" slope="0.00" signals="0" acceleration="2.18" distance="14.14"/>
        <vehicle id="non_ego_flow.1" x="-194.23" y="-4.80" angle="90.00" type="non-ego" speed="1.63" pos="5.77" lane="E0_0" slope="0.00" signals="0" acceleration="2.55" distance="5.77"/>
    </timestep>
    <timestep time="3.20">
        <vehicle id="ego_vehicle" x="244.30" y="1.60" angle="270.00" type="ego" speed="2.24" pos="5.70" lane="-E6_1" slope="0.00" signals="0" acceleration="5.55" distance="5.70"/>
        <vehicle id="non_ego_flow.0" x="235.20" y="4.80" angle="270.00" type="non-ego" speed="6.62" pos="14.80" lane="-E6_0" slope="0.00" signals="0" acceleration="2.44" distance="14.80"/>
        <vehicle id="non_ego_flow.1" x="-194.04" y="-4.80" angle="90.00" type="non-ego" speed="1.88" pos="5.96" lane="E0_0" slope="0.00" signals="0" acceleration="2.57" distance="5.96"/>
    </timestep>
    <timestep time="3.30">
        <vehicle id="ego_vehicle" x="244.02" y="1.60" angle="270.00" type="ego" speed="2.83" pos="5.98" lane="-E6_1" slope="0.00" signals="0" acceleration="5.85" distance="5.98"/>
        <vehicle id="non_ego_flow.0" x="234.51" y="4.80" angle="270.00" type="non-ego" speed="6.87" pos="15.49" lane="-E6_0" slope="0.00" signals="0" acceleration="2.48" distance="15.49"/>
        <vehicle id="non_ego_flow.1" x="-193.82" y="-4.80" angle="90.00" type="non-ego" speed="2.14" pos="6.18" lane="E0_0" slope="0.00" signals="0" acceleration="2.58" distance="6.18"/>
    </timestep>
    <timestep time="3.40">
        <vehicle id="ego_vehicle" x="243.68" y="1.60" angle="270.00" type="ego" speed="3.43" pos="6.32" lane="-E6_1" slope="0.00" signals="0" acceleration="6.00" distance="6.32"/>
        <vehicle id="non_ego_flow.0" x="233.80" y="4.80" angle="270.00" type="non-ego" speed="7.12" pos="16.20" lane="-E6_0" slope="0.00" signals="0" acceleration="2.55" distance="16.20"/>
        <vehicle id="non_ego_flow.1" x="-193.58" y="-4.80" angle="90.00" type="non-ego" speed="2.40" pos="6.42" lane="E0_0" slope="0.00" signals="0" acceleration="2.60" distance="6.42"/>
    </timestep>
    <timestep time="3.50">
        <vehicle id="ego_vehicle" x="243.27" y="1.60" angle="270.00" type="ego" speed="4.04" pos="6.73" lane="-E6_1" slope="0.00" signals="0" acceleration="6.14" distance="6.73"/>
        <vehicle id="non_ego_flow.0" x="233.06" y="4.80" angle="270.00" type="non-ego" speed="7.35" pos="16.94" lane="-E6_0" slope="0.00" signals="0" acceleration="2.28" distance="16.94"/>
        <vehicle id="non_ego_flow.1" x="-193.32" y="-4.80" angle="90.00" type="non-ego" speed="2.66" pos="6.68" lane="E0_0" slope="0.00" signals="0" acceleration="2.60" distance="6.68"/>
    </timestep>
    <timestep time="3.60">
        <vehicle id="ego_vehicle" x="242.80" y="1.60" angle="270.00" type="ego" speed="4.67" pos="7.20" lane="-E6_1" slope="0.00" signals="0" acceleration="6.28" distance="7.20"/>
        <vehicle id="non_ego_flow.0" x="232.30" y="4.80" angle="270.00" type="non-ego" speed="7.58" pos="17.70" lane="-E6_0" slope="0.00" signals="0" acceleration="2.30" distance="17.70"/>
        <vehicle id="non_ego_flow.1" x="-193.03" y="-4.80" angle="90.00" type="non-ego" speed="2.92" pos="6.97" lane="E0_0" slope="0.00" signals="0" acceleration="2.59" distance="6.97"/>
    </timestep>
    <timestep time="3.70">
        <vehicle id="ego_vehicle" x="242.28" y="1.60" angle="270.00" type="ego" speed="5.25" pos="7.72" lane="-E6_1" slope="0.00" signals="0" acceleration="5.86" distance="7.72"/>
        <vehicle id="non_ego_flow.0" x="231.52" y="4.80" angle="270.00" type="non-ego" speed="7.80" pos="18.48" lane="-E6_0" slope="0.00" signals="0" acceleration="2.16" distance="18.48"/>
        <vehicle id="non_ego_flow.1" x="-192.71" y="-4.80" angle="90.00" type="non-ego" speed="3.18" pos="7.29" lane="E0_0" slope="0.00" signals="0" acceleration="2.59" distance="7.29"/>
    </timestep>
    <timestep time="3.80">
        <vehicle id="ego_vehicle" x="241.69" y="1.60" angle="270.00" type="ego" speed="5.87" pos="8.31" lane="-E6_1" slope="0.00" signals="0" acceleration="6.16" distance="8.31"/>
        <vehicle id="non_ego_flow.0" x="230.72" y="4.80" angle="270.00" type="non-ego" speed="8.03" pos="19.28" lane="-E6_0" slope="0.00" signals="0" acceleration="2.29" distance="19.28"/>
        <vehicle id="non_ego_flow.1" x="-192.37" y="-4.80" angle="90.00" type="non-ego" speed="3.42" pos="7.63" lane="E0_0" slope="0.00" signals="0" acceleration="2.44" distance="7.63"/>
    </timestep>
    <timestep time="3.90">
        <vehicle id="ego_vehicle" x="241.05" y="1.60" angle="270.00" type="ego" speed="6.44" pos="8.95" lane="-E6_1" slope="0.00" signals="0" acceleration="5.69" distance="8.95"/>
        <vehicle id="non_ego_flow.0" x="229.90" y="4.80" angle="270.00" type="non-ego" speed="8.24" pos="20.10" lane="-E6_0" slope="0.00" signals="0" acceleration="2.14" distance="20.10"/>
        <vehicle id="non_ego_flow.1" x="-192.00" y="-4.80" angle="90.00" type="non-ego" speed="3.66" pos="8.00" lane="E0_0" slope="0.00" signals="0" acceleration="2.37" distance="8.00"/>
    </timestep>
    <timestep time="4.00">
        <vehicle id="ego_vehicle" x="240.35" y="1.60" angle="270.00" type="ego" speed="7.03" pos="9.65" lane="-E6_1" slope="0.00" signals="0" acceleration="5.94" distance="9.65"/>
        <vehicle id="non_ego_flow.0" x="229.05" y="4.80" angle="270.00" type="non-ego" speed="8.45" pos="20.95" lane="-E6_0" slope="0.00" signals="0" acceleration="2.07" distance="20.95"/>
        <vehicle id="non_ego_flow.1" x="-191.61" y="-4.80" angle="90.00" type="non-ego" speed="3.89" pos="8.39" lane="E0_0" slope="0.00" signals="0" acceleration="2.27" distance="8.39"/>
        <vehicle id="non_ego_flow.2" x="244.90" y="4.80" angle="270.00" type="non-ego" speed="0.00" pos="5.10" lane="-E6_0" slope="0.00" signals="0" acceleration="0.00" distance="5.10"/>
    </timestep>
    <timestep time="4.10">
        <vehicle id="ego_vehicle" x="239.59" y="1.60" angle="270.00" type="ego" speed="7.52" pos="10.41" lane="-E6_1" slope="0.00" signals="0" acceleration="4.84" distance="10.41"/>
        <vehicle id="non_ego_flow.0" x="228.19" y="4.80" angle="270.00" type="non-ego" speed="8.67" pos="21.81" lane="-E6_0" slope="0.00" signals="0" acceleration="2.20" distance="21.81"/>
        <vehicle id="non_ego_flow.1" x="-191.20" y="-4.80" angle="90.00" type="non-ego" speed="4.13" pos="8.80" lane="E0_0" slope="0.00" signals="0" acceleration="2.39" distance="8.80"/>
        <vehicle id="non_ego_flow.2" x="244.90" y="4.80" angle="270.00" type="non-ego" speed="0.01" pos="5.10" lane="-E6_0" slope="0.00" signals="8" acceleration="0.14" distance="5.10"/>
    </timestep>
    <timestep time="4.20">
        <vehicle id="ego_vehicle" x="238.79" y="1.60" angle="270.00" type="ego" speed="8.03" pos="11.21" lane="-E6_1" slope="0.00" signals="0" acceleration="5.14" distance="11.21"/>
        <vehicle id="non_ego_flow.0" x="227.30" y="4.80" angle="270.00" type="non-ego" speed="8.85" pos="22.70" lane="-E6_0" slope="0.00" signals="0" acceleration="1.89" distance="22.70"/>
        <vehicle id="non_ego_flow.1" x="-190.76" y="-4.80" angle="90.00" type="non-ego" speed="4.39" pos="9.24" lane="E0_0" slope="0.00" signals="0" acceleration="2.60" distance="9.24"/>
        <vehicle id="non_ego_flow.2" x="244.89" y="4.80" angle="270.00" type="non-ego" speed="0.04" pos="5.11" lane="-E6_0" slope="0.00" signals="8" acceleration="0.26" distance="5.11"/>
    </timestep>
    <timestep time="4.30">
        <vehicle id="ego_vehicle" x="237.94" y="1.60" angle="270.00" type="ego" speed="8.55" pos="12.06" lane="-E6_1" slope="0.00" signals="0" acceleration="5.18" distance="12.06"/>
        <vehicle id="non_ego_flow.0" x="226.40" y="4.80" angle="270.00" type="non-ego" speed="9.04" pos="23.60" lane="-E6_0" slope="0.00" signals="0" acceleration="1.86" distance="23.60"/>
        <vehicle id="non_ego_flow.1" x="-190.29" y="-4.80" angle="90.00" type="non-ego" speed="4.65" pos="9.71" lane="E0_0" slope="0.00" signals="0" acceleration="2.62" distance="9.71"/>
        <vehicle id="non_ego_flow.2" x="244.89" y="4.80" angle="270.00" type="non-ego" speed="0.09" pos="5.11" lane="-E6_0" slope="0.00" signals="8" acceleration="0.46" distance="5.11"/>
    </timestep>
    <timestep time="4.40">
        <vehicle id="ego_vehicle" x="237.05" y="1.60" angle="270.00" type="ego" speed="8.85" pos="12.95" lane="-E6_1" slope="0.00" signals="0" acceleration="2.99" distance="12.95"/>
        <vehicle id="non_ego_flow.0" x="225.47" y="4.80" angle="270.00" type="non-ego" speed="9.24" pos="24.53" lane="-E6_0" slope="0.00" signals="0" acceleration="2.02" distance="24.53"/>
        <vehicle id="non_ego_flow.1" x="-189.80" y="-4.80" angle="90.00" type="non-ego" speed="4.90" pos="10.20" lane="E0_0" slope="0.00" signals="0" acceleration="2.49" distance="10.20"/>
        <vehicle id="non_ego_flow.2" x="244.87" y="4.80" angle="270.00" type="non-ego" speed="0.16" pos="5.13" lane="-E6_0" slope="0.00" signals="0" acceleration="0.77" distance="5.13"/>
    </timestep>
    <timestep time="4.50">
        <vehicle id="ego_vehicle" x="236.13" y="1.60" angle="270.00" type="ego" speed="9.17" pos="13.87" lane="-E6_1" slope="0.00" signals="0" acceleration="3.25" distance="13.87"/>
        <vehicle id="non_ego_flow.0" x="224.53" y="4.80" angle="270.00" type="non-ego" speed="9.44" pos="25.47" lane="-E6_0" slope="0.00" signals="0" acceleration="1.99" distance="25.47"/>
        <vehicle id="non_ego_flow.1" x="-189.29" y="-4.80" angle="90.00" type="non-ego" speed="5.13" pos="10.71" lane="E0_0" slope="0.00" signals="0" acceleration="2.32" distance="10.71"/>
        <vehicle id="non_ego_flow.2" x="244.84" y="4.80" angle="270.00" type="non-ego" speed="0.28" pos="5.16" lane="-E6_0" slope="0.00" signals="0" acceleration="1.16" distance="5.16"/>
    </timestep>
    <timestep time="4.60">
        <vehicle id="ego_vehicle" x="235.21" y="1.60" angle="270.00" type="ego" speed="9.29" pos="14.79" lane="-E6_1" slope="0.00" signals="0" acceleration="1.13" distance="14.79"/>
        <vehicle id="non_ego_flow.0" x="223.56" y="4.80" angle="270.00" type="non-ego" speed="9.63" pos="26.44" lane="-E6_0" slope="0.00" signals="0" acceleration="1.91" distance="26.44"/>
        <vehicle id="non_ego_flow.1" x="-188.75" y="-4.80" angle="90.00" type="non-ego" speed="5.38" pos="11.25" lane="E0_0" slope="0.00" signals="0" acceleration="2.50" distance="11.25"/>
        <vehicle id="non_ego_flow.2" x="244.80" y="4.80" angle="270.00" type="non-ego" speed="0.44" pos="5.20" lane="-E6_0" slope="0.00" signals="0" acceleration="1.59" distance="5.20"/>
    </timestep>
    <timestep time="4.70">
        <vehicle id="ego_vehicle" x="234.27" y="1.60" angle="270.00" type="ego" speed="9.32" pos="15.73" lane="-E6_1" slope="0.00" signals="0" acceleration="0.37" distance="15.73"/>
        <vehicle id="non_ego_flow.0" x="222.58" y="4.80" angle="270.00" type="non-ego" speed="9.83" pos="27.42" lane="-E6_0" slope="0.00" signals="0" acceleration="1.93" distance="27.42"/>
        <vehicle id="non_ego_flow.1" x="-188.19" y="-4.80" angle="90.00" type="non-ego" speed="5.64" pos="11.81" lane="E0_0" slope="0.00" signals="0" acceleration="2.63" distance="11.81"/>
        <vehicle id="non_ego_flow.2" x="244.73" y="4.80" angle="270.00" type="non-ego" speed="0.63" pos="5.27" lane="-E6_0" slope="0.00" signals="0" acceleration="1.94" distance="5.27"/>
    </timestep>
    <timestep time="4.80">
        <vehicle id="ego_vehicle" x="233.34" y="1.60" angle="270.00" type="ego" speed="9.36" pos="16.66" lane="-E6_1" slope="0.00" signals="0" acceleration="0.37" distance="16.66"/>
        <vehicle id="non_ego_flow.0" x="221.58" y="4.80" angle="270.00" type="non-ego" speed="10.02" pos="28.42" lane="-E6_0" slope="0.00" signals="0" acceleration="1.96" distance="28.42"/>
        <vehicle id="non_ego_flow.1" x="-187.60" y="-4.80" angle="90.00" type="non-ego" speed="5.90" pos="12.40" lane="E0_0" slope="0.00" signals="0" acceleration="2.54" distance="12.40"/>
        <vehicle id="non_ego_flow.2" x="244.65" y="4.80" angle="270.00" type="non-ego" speed="0.85" pos="5.35" lane="-E6_0" slope="0.00" signals="0" acceleration="2.19" distance="5.35"/>
    </timestep>
    <timestep time="4.90">
        <vehicle id="ego_vehicle" x="232.39" y="1.60" angle="270.00" type="ego" speed="9.43" pos="17.61" lane="-E6_1" slope="0.00" signals="0" acceleration="0.67" distance="17.61"/>
        <vehicle id="non_ego_flow.0" x="220.56" y="4.80" angle="270.00" type="non-ego" speed="10.23" pos="29.44" lane="-E6_0" slope="0.00" signals="0" acceleration="2.06" distance="29.44"/>
        <vehicle id="non_ego_flow.1" x="-186.98" y="-4.80" angle="90.00" type="non-ego" speed="6.15" pos="13.02" lane="E0_0" slope="0.00" signals="0" acceleration="2.53" distance="13.02"/>
        <vehicle id="non_ego_flow.2" x="244.54" y="4.80" angle="270.00" type="non-ego" speed="1.09" pos="5.46" lane="-E6_0" slope="0.00" signals="0" acceleration="2.35" distance="5.46"/>
    </timestep>
    <timestep time="5.00">
        <vehicle id="ego_vehicle" x="231.44" y="1.60" angle="270.00" type="ego" speed="9.52" pos="18.56" lane="-E6_1" slope="0.00" signals="0" acceleration="0.97" distance="18.56"/>
        <vehicle id="non_ego_flow.0" x="219.52" y="4.80" angle="270.00" type="non-ego" speed="10.41" pos="30.48" lane="-E6_0" slope="0.00" signals="0" acceleration="1.81" distance="30.48"/>
        <vehicle id="non_ego_flow.1" x="-186.34" y="-4.80" angle="90.00" type="non-ego" speed="6.41" pos="13.66" lane="E0_0" slope="0.00" signals="0" acceleration="2.55" distance="13.66"/>
        <vehicle id="non_ego_flow.2" x="244.41" y="4.80" angle="270.00" type="non-ego" speed="1.33" pos="5.59" lane="-E6_0" slope="0.00" signals="0" acceleration="2.44" distance="5.59"/>
    </timestep>
    <timestep time="5.10">
        <vehicle id="ego_vehicle" x="230.48" y="1.60" angle="270.00" type="ego" speed="9.64" pos="19.52" lane="-E6_1" slope="0.00" signals="0" acceleration="1.14" distance="19.52"/>
        <vehicle id="non_ego_flow.0" x="218.46" y="4.80" angle="270.00" type="non-ego" speed="10.59" pos="31.54" lane="-E6_0" slope="0.00" signals="0" acceleration="1.86" distance="31.54"/>
        <vehicle id="non_ego_flow.1" x="-185.68" y="-4.80" angle="90.00" type="non-ego" speed="6.65" pos="14.32" lane="E0_0" slope="0.00" signals="0" acceleration="2.47" distance="14.32"/>
        <vehicle id="non_ego_flow.2" x="244.25" y="4.80" angle="270.00" type="non-ego" speed="1.58" pos="5.75" lane="-E6_0" slope="0.00" signals="0" acceleration="2.50" distance="5.75"/>
    </timestep>
    <timestep time="5.20">
        <vehicle id="ego_vehicle" x="229.51" y="1.60" angle="270.00" type="ego" speed="9.64" pos="20.49" lane="-E6_1" slope="0.00" signals="0" acceleration="0.05" distance="20.49"/>
        <vehicle id="non_ego_flow.0" x="217.38" y="4.80" angle="270.00" type="non-ego" speed="10.79" pos="32.62" lane="-E6_0" slope="0.00" signals="0" acceleration="1.94" distance="32.62"/>
        <vehicle id="non_ego_flow.1" x="-184.99" y="-4.80" angle="90.00" type="non-ego" speed="6.88" pos="15.01" lane="E0_0" slope="0.00" signals="0" acceleration="2.31" distance="15.01"/>
        <vehicle id="non_ego_flow.2" x="244.07" y="4.80" angle="270.00" type="non-ego" speed="1.83" pos="5.93" lane="-E6_0" slope="0.00" signals="0" acceleration="2.52" distance="5.93"/>
    </timestep>
    <timestep time="5.30">
        <vehicle id="ego_vehicle" x="228.55" y="1.60" angle="270.00" type="ego" speed="9.68" pos="21.45" lane="-E6_1" slope="0.00" signals="0" acceleration="0.35" distance="21.45"/>
        <vehicle id="non_ego_flow.0" x="216.28" y="4.80" angle="270.00" type="non-ego" speed="11.01" pos="33.72" lane="-E6_0" slope="0.00" signals="0" acceleration="2.23" distance="33.72"/>
        <vehicle id="non_ego_flow.1" x="-184.28" y="-4.80" angle="90.00" type="non-ego" speed="7.12" pos="15.72" lane="E0_0" slope="0.00" signals="0" acceleration="2.37" distance="15.72"/>
        <vehicle id="non_ego_flow.2" x="243.86" y="4.80" angle="270.00" type="non-ego" speed="2.09" pos="6.14" lane="-E6_0" slope="0.00" signals="0" acceleration="2.54" distance="6.14"/>
    </timestep>
    <timestep time="5.40">
        <vehicle id="ego_vehicle" x="227.57" y="1.60" angle="270.00" type="ego" speed="9.74" pos="22.43" lane="-E6_1" slope="0.00" signals="0" acceleration="0.65" distance="22.43"/>
        <vehicle id="non_ego_flow.0" x="215.15" y="4.80" angle="270.00" type="non-ego" speed="11.24" pos="34.85" lane="-E6_0" slope="0.00" signals="0" acceleration="2.29" distance="34.85"/>
        <vehicle id="non_ego_flow.1" x="-183.54" y="-4.80" angle="90.00" type="non-ego" speed="7.37" pos="16.46" lane="E0_0" slope="0.00" signals="0" acceleration="2.49" distance="16.46"/>
        <vehicle id="non_ego_flow.2" x="243.62" y="4.80" angle="270.00" type="non-ego" speed="2.34" pos="6.38" lane="-E6_0" slope="0.00" signals="0" acceleration="2.55" distance="6.38"/>
    </timestep>
    <timestep time="5.50">
        <vehicle id="ego_vehicle" x="226.59" y="1.60" angle="270.00" type="ego" speed="9.84" pos="23.41" lane="-E6_1" slope="0.00" signals="0" acceleration="0.95" distance="23.41"/>
        <vehicle id="non_ego_flow.0" x="214.00" y="4.80" angle="270.00" type="non-ego" speed="11.48" pos="36.00" lane="-E6_0" slope="0.00" signals="0" acceleration="2.45" distance="36.00"/>
        <vehicle id="non_ego_flow.1" x="-182.78" y="-4.80" angle="90.00" type="non-ego" speed="7.62" pos="17.22" lane="E0_0" slope="0.00" signals="0" acceleration="2.46" distance="17.22"/>
        <vehicle id="non_ego_flow.2" x="243.36" y="4.80" angle="270.00" type="non-ego" speed="2.60" pos="6.64" lane="-E6_0" slope="0.00" signals="0" acceleration="2.55" distance="6.64"/>
    </timestep>
    <timestep time="5.60">