<?xml version="1.0" encoding="UTF-8"?>

<!-- generated on 2023-11-28 11:44:10 by Eclipse SUMO GUI Version 1.18.0
<configuration xmlns:xsi="http://www.w3.org/2001/XMLSchema-instance" xsi:noNamespaceSchemaLocation="http://sumo.dlr.de/xsd/sumoConfiguration.xsd">

    <input>
        <net-file value="Highway_route.net.xml"/>
        <route-files value="Highway.rou.xml"/>
    </input>

    <output>
        <fcd-output value="fcd-output.xml"/>
        <fcd-output.acceleration value="true"/>
        <amitran-output value="trajectory"/>
        <collision-output value="collision-output"/>
        <statistic-output value="statistic-output"/>
    </output>

    <time>
        <begin value="0"/>
        <end value="1000"/>
        <step-length value="0.1"/>
    </time>

    <processing>
        <collision.action value="remove"/>
        <collision.stoptime value="2"/>
        <max-num-vehicles value="40"/>
    </processing>

    <random_number>
        <random value="true"/>
    </random_number>

</configuration>
-->

<fcd-export xmlns:xsi="http://www.w3.org/2001/XMLSchema-instance" xsi:noNamespaceSchemaLocation="http://sumo.dlr.de/xsd/fcd_file.xsd">
    <timestep time="0.00">
        <vehicle id="EGOVEHICLE" x="394.90" y="4.80" angle="270.00" type="EGOVEHICLE" speed="0.00" pos="5.10" lane="-E2_0" slope="0.00" acceleration="0.00"/>
        <vehicle id="f_0.0" x="-87.62" y="-4.80" angle="90.00" type="DEFAULTVEHCILE" speed="0.00" pos="12.38" lane="E0_0" slope="0.00" acceleration="0.00"/>
        <vehicle id="f_1.0" x="-84.87" y="-79.94" angle="33.37" type="DEFAULTVEHCILE" speed="0.00" pos="25.08" lane="E5_0" slope="0.00" acceleration="0.00"/>
        <vehicle id="f_2.0" x="-45.23" y="-1.60" angle="90.00" type="DEFAULTVEHCILE" speed="0.00" pos="54.77" lane="E0_1" slope="0.00" acceleration="0.00"/>
        <vehicle id="f_3.0" x="391.87" y="1.60" angle="270.00" type="DEFAULTVEHCILE" speed="0.00" pos="8.13" lane="-E2_1" slope="0.00" acceleration="0.00"/>
        <vehicle id="f_4.0" x="291.39" y="90.83" angle="215.86" type="DEFAULTVEHCILE" speed="0.00" pos="12.47" lane="E7_0" slope="0.00" acceleration="0.00"/>
        <vehicle id="f_5.0" x="323.12" y="4.80" angle="270.00" type="DEFAULTVEHCILE" speed="0.00" pos="76.88" lane="-E2_0" slope="0.00" acceleration="0.00"/>
    </timestep>
    <timestep time="0.10">
        <vehicle id="EGOVEHICLE" x="394.90" y="4.80" angle="270.00" type="EGOVEHICLE" speed="0.03" pos="5.10" lane="-E2_0" slope="0.00" acceleration="0.34"/>
        <vehicle id="f_0.0" x="-87.58" y="-4.80" angle="90.00" type="DEFAULTVEHCILE" speed="0.39" pos="12.42" lane="E0_0" slope="0.00" acceleration="3.93"/>
        <vehicle id="f_1.0" x="-84.84" y="-79.90" angle="33.37" type="DEFAULTVEHCILE" speed="0.39" pos="25.12" lane="E5_0" slope="0.00" acceleration="3.93"/>
        <vehicle id="f_2.0" x="-45.19" y="-1.60" angle="90.00" type="DEFAULTVEHCILE" speed="0.39" pos="54.81" lane="E0_1" slope="0.00" acceleration="3.93"/>
        <vehicle id="f_3.0" x="391.83" y="1.60" angle="270.00" type="DEFAULTVEHCILE" speed="0.39" pos="8.17" lane="-E2_1" slope="0.00" acceleration="3.93"/>
        <vehicle id="f_4.0" x="291.37" y="90.80" angle="215.86" type="DEFAULTVEHCILE" speed="0.39" pos="12.51" lane="E7_0" slope="0.00" acceleration="3.93"/>
        <vehicle id="f_5.0" x="323.08" y="4.80" angle="270.00" type="DEFAULTVEHCILE" speed="0.39" pos="76.92" lane="-E2_0" slope="0.00" acceleration="3.93"/>
    </timestep>
    <timestep time="0.20">
        <vehicle id="EGOVEHICLE" x="394.89" y="4.80" angle="270.00" type="EGOVEHICLE" speed="0.10" pos="5.11" lane="-E2_0" slope="0.00" acceleration="0.63"/>
        <vehicle id="f_0.0" x="-87.50" y="-4.80" angle="90.00" type="DEFAULTVEHCILE" speed="0.76" pos="12.50" lane="E0_0" slope="0.00" acceleration="3.68"/>
        <vehicle id="f_1.0" x="-84.80" y="-79.84" angle="33.37" type="DEFAULTVEHCILE" speed="0.76" pos="25.19" lane="E5_0" slope="0.00" acceleration="3.68"/>
        <vehicle id="f_2.0" x="-45.11" y="-1.60" angle="90.00" type="DEFAULTVEHCILE" speed="0.76" pos="54.89" lane="E0_1" slope="0.00" acceleration="3.68"/>
        <vehicle id="f_3.0" x="391.76" y="1.60" angle="270.00" type="DEFAULTVEHCILE" speed="0.76" pos="8.24" lane="-E2_1" slope="0.00" acceleration="3.68"/>
        <vehicle id="f_4.0" x="291.33" y="90.74" angle="215.86" type="DEFAULTVEHCILE" speed="0.76" pos="12.59" lane="E7_0" slope="0.00" acceleration="3.68"/>
        <vehicle id="f_5.0" x="323.00" y="4.80" angle="270.00" type="DEFAULTVEHCILE" speed="0.76" pos="77.00" lane="-E2_0" slope="0.00" acceleration="3.68"/>
    </timestep>
    <timestep time="0.30">
        <vehicle id="EGOVEHICLE" x="394.87" y="4.80" angle="270.00" type="EGOVEHICLE" speed="0.21" pos="5.13" lane="-E2_0" slope="0.00" acceleration="1.12"/>
        <vehicle id="f_0.0" x="-87.39" y="-4.80" angle="90.00" type="DEFAULTVEHCILE" speed="1.11" pos="12.61" lane="E0_0" slope="0.00" acceleration="3.45"/>
        <vehicle id="f_1.0" x="-84.74" y="-79.75" angle="33.37" type="DEFAULTVEHCILE" speed="1.11" pos="25.30" lane="E5_0" slope="0.00" acceleration="3.45"/>
        <vehicle id="f_2.0" x="-45.00" y="-1.60" angle="90.00" type="DEFAULTVEHCILE" speed="1.11" pos="55.00" lane="E0_1" slope="0.00" acceleration="3.45"/>
        <vehicle id="f_3.0" x="391.65" y="1.60" angle="270.00" type="DEFAULTVEHCILE" speed="1.11" pos="8.35" lane="-E2_1" slope="0.00" acceleration="3.45"/>
        <vehicle id="f_4.0" x="291.26" y="90.65" angle="215.86" type="DEFAULTVEHCILE" speed="1.11" pos="12.70" lane="E7_0" slope="0.00" acceleration="3.45"/>
        <vehicle id="f_5.0" x="322.89" y="4.80" angle="270.00" type="DEFAULTVEHCILE" speed="1.11" pos="77.11" lane="-E2_0" slope="0.00" acceleration="3.45"/>
    </timestep>
    <timestep time="0.40">
        <vehicle id="EGOVEHICLE" x="394.83" y="4.80" angle="270.00" type="EGOVEHICLE" speed="0.40" pos="5.17" lane="-E2_0" slope="0.00" acceleration="1.86"/>
        <vehicle id="f_0.0" x="-87.24" y="-4.80" angle="90.00" type="DEFAULTVEHCILE" speed="1.47" pos="12.76" lane="E0_0" slope="0.00" acceleration="3.68"/>
        <vehicle id="f_1.0" x="-84.66" y="-79.62" angle="33.37" type="DEFAULTVEHCILE" speed="1.47" pos="25.45" lane="E5_0" slope="0.00" acceleration="3.68"/>
        <vehicle id="f_2.0" x="-44.85" y="-1.60" angle="90.00" type="DEFAULTVEHCILE" speed="1.47" pos="55.15" lane="E0_1" slope="0.00" acceleration="3.68"/>
        <vehicle id="f_3.0" x="391.50" y="1.60" angle="270.00" type="DEFAULTVEHCILE" speed="1.47" pos="8.50" lane="-E2_1" slope="0.00" acceleration="3.68"/>
        <vehicle id="f_4.0" x="291.17" y="90.53" angle="215.86" type="DEFAULTVEHCILE" speed="1.47" pos="12.85" lane="E7_0" slope="0.00" acceleration="3.68"/>
        <vehicle id="f_5.0" x="322.75" y="4.80" angle="270.00" type="DEFAULTVEHCILE" speed="1.47" pos="77.25" lane="-E2_0" slope="0.00" acceleration="3.68"/>
    </timestep>
    <timestep time="0.50">
        <vehicle id="EGOVEHICLE" x="394.76" y="4.80" angle="270.00" type="EGOVEHICLE" speed="0.68" pos="5.24" lane="-E2_0" slope="0.00" acceleration="2.79"/>
        <vehicle id="f_0.0" x="-87.06" y="-4.80" angle="90.00" type="DEFAULTVEHCILE" speed="1.79" pos="12.94" lane="E0_0" slope="0.00" acceleration="3.18"/>
        <vehicle id="f_1.0" x="-84.56" y="-79.47" angle="33.37" type="DEFAULTVEHCILE" speed="1.79" pos="25.63" lane="E5_0" slope="0.00" acceleration="3.18"/>
        <vehicle id="f_2.0" x="-44.67" y="-1.60" angle="90.00" type="DEFAULTVEHCILE" speed="1.79" pos="55.33" lane="E0_1" slope="0.00" acceleration="3.18"/>
        <vehicle id="f_3.0" x="391.32" y="1.60" angle="270.00" type="DEFAULTVEHCILE" speed="1.79" pos="8.68" lane="-E2_1" slope="0.00" acceleration="3.18"/>
        <vehicle id="f_4.0" x="291.07" y="90.38" angle="215.86" type="DEFAULTVEHCILE" speed="1.79" pos="13.03" lane="E7_0" slope="0.00" acceleration="3.18"/>
        <vehicle id="f_5.0" x="322.57" y="4.80" angle="270.00" type="DEFAULTVEHCILE" speed="1.79" pos="77.43" lane="-E2_0" slope="0.00" acceleration="3.18"/>
    </timestep>
    <timestep time="0.60">
        <vehicle id="EGOVEHICLE" x="394.65" y="4.80" angle="270.00" type="EGOVEHICLE" speed="1.05" pos="5.35" lane="-E2_0" slope="0.00" acceleration="3.78"/>
        <vehicle id="f_0.0" x="-86.85" y="-4.80" angle="90.00" type="DEFAULTVEHCILE" speed="2.16" pos="13.15" lane="E0_0" slope="0.00" acceleration="3.66"/>
        <vehicle id="f_1.0" x="-84.44" y="-79.29" angle="33.37" type="DEFAULTVEHCILE" speed="2.16" pos="25.85" lane="E5_0" slope="0.00" acceleration="3.66"/>
        <vehicle id="f_2.0" x="-44.46" y="-1.60" angle="90.00" type="DEFAULTVEHCILE" speed="2.16" pos="55.54" lane="E0_1" slope="0.00" acceleration="3.66"/>
        <vehicle id="f_3.0" x="391.11" y="1.60" angle="270.00" type="DEFAULTVEHCILE" speed="2.16" pos="8.89" lane="-E2_1" slope="0.00" acceleration="3.66"/>
        <vehicle id="f_4.0" x="290.94" y="90.21" angle="215.86" type="DEFAULTVEHCILE" speed="2.16" pos="13.24" lane="E7_0" slope="0.00" acceleration="3.66"/>
        <vehicle id="f_5.0" x="322.35" y="4.80" angle="270.00" type="DEFAULTVEHCILE" speed="2.16" pos="77.65" lane="-E2_0" slope="0.00" acceleration="3.66"/>
    </timestep>
    <timestep time="0.70">
        <vehicle id="EGOVEHICLE" x="394.50" y="4.80" angle="270.00" type="EGOVEHICLE" speed="1.51" pos="5.50" lane="-E2_0" slope="0.00" acceleration="4.60"/>
        <vehicle id="f_0.0" x="-86.59" y="-4.80" angle="90.00" type="DEFAULTVEHCILE" speed="2.53" pos="13.41" lane="E0_0" slope="0.00" acceleration="3.68"/>
        <vehicle id="f_1.0" x="-84.31" y="-79.08" angle="33.37" type="DEFAULTVEHCILE" speed="2.53" pos="26.10" lane="E5_0" slope="0.00" acceleration="3.68"/>
        <vehicle id="f_2.0" x="-44.21" y="-1.60" angle="90.00" type="DEFAULTVEHCILE" speed="2.53" pos="55.79" lane="E0_1" slope="0.00" acceleration="3.68"/>
        <vehicle id="f_3.0" x="390.85" y="1.60" angle="270.00" type="DEFAULTVEHCILE" speed="2.53" pos="9.15" lane="-E2_1" slope="0.00" acceleration="3.68"/>
        <vehicle id="f_4.0" x="290.79" y="90.00" angle="215.86" type="DEFAULTVEHCILE" speed="2.53" pos="13.49" lane="E7_0" slope="0.00" acceleration="3.68"/>
        <vehicle id="f_5.0" x="322.10" y="4.80" angle="270.00" type="DEFAULTVEHCILE" speed="2.53" pos="77.90" lane="-E2_0" slope="0.00" acceleration="3.68"/>
    </timestep>
    <timestep time="0.80">
        <vehicle id="EGOVEHICLE" x="394.30" y="4.80" angle="270.00" type="EGOVEHICLE" speed="2.03" pos="5.70" lane="-E2_0" slope="0.00" acceleration="5.19"/>
        <vehicle id="f_0.0" x="-86.31" y="-4.80" angle="90.00" type="DEFAULTVEHCILE" speed="2.84" pos="13.69" lane="E0_0" slope="0.00" acceleration="3.18"/>
        <vehicle id="f_1.0" x="-84.15" y="-78.85" angle="33.37" type="DEFAULTVEHCILE" speed="2.84" pos="26.38" lane="E5_0" slope="0.00" acceleration="3.18"/>
        <vehicle id="f_2.0" x="-43.92" y="-1.60" angle="90.00" type="DEFAULTVEHCILE" speed="2.84" pos="56.08" lane="E0_1" slope="0.00" acceleration="3.18"/>
        <vehicle id="f_3.0" x="390.57" y="1.60" angle="270.00" type="DEFAULTVEHCILE" speed="2.84" pos="9.43" lane="-E2_1" slope="0.00" acceleration="3.18"/>
        <vehicle id="f_4.0" x="290.63" y="89.77" angle="215.86" type="DEFAULTVEHCILE" speed="2.84" pos="13.78" lane="E7_0" slope="0.00" acceleration="3.18"/>
        <vehicle id="f_5.0" x="321.81" y="4.80" angle="270.00" type="DEFAULTVEHCILE" speed="2.84" pos="78.19" lane="-E2_0" slope="0.00" acceleration="3.18"/>
    </timestep>
    <timestep time="0.90">
        <vehicle id="EGOVEHICLE" x="394.04" y="4.80" angle="270.00" type="EGOVEHICLE" speed="2.59" pos="5.96" lane="-E2_0" slope="0.00" acceleration="5.55"/>
        <vehicle id="f_0.0" x="-85.99" y="-4.80" angle="90.00" type="DEFAULTVEHCILE" speed="3.19" pos="14.01" lane="E0_0" slope="0.00" acceleration="3.46"/>
        <vehicle id="f_1.0" x="-83.97" y="-78.58" angle="33.37" type="DEFAULTVEHCILE" speed="3.19" pos="26.70" lane="E5_0" slope="0.00" acceleration="3.46"/>
        <vehicle id="f_2.0" x="-43.60" y="-1.60" angle="90.00" type="DEFAULTVEHCILE" speed="3.19" pos="56.40" lane="E0_1" slope="0.00" acceleration="3.46"/>
        <vehicle id="f_3.0" x="390.25" y="1.60" angle="270.00" type="DEFAULTVEHCILE" speed="3.19" pos="9.75" lane="-E2_1" slope="0.00" acceleration="3.46"/>
        <vehicle id="f_4.0" x="290.44" y="89.51" angle="215.86" type="DEFAULTVEHCILE" speed="3.19" pos="14.10" lane="E7_0" slope="0.00" acceleration="3.46"/>
        <vehicle id="f_5.0" x="321.49" y="4.80" angle="270.00" type="DEFAULTVEHCILE" speed="3.19" pos="78.51" lane="-E2_0" slope="0.00" acceleration="3.46"/>
    </timestep>
    <timestep time="1.00">
        <vehicle id="EGOVEHICLE" x="393.72" y="4.80" angle="270.00" type="EGOVEHICLE" speed="3.16" pos="6.28" lane="-E2_0" slope="0.00" acceleration="5.75"/>
        <vehicle id="f_0.0" x="-85.63" y="-4.80" angle="90.00" type="DEFAULTVEHCILE" speed="3.57" pos="14.37" lane="E0_0" slope="0.00" acceleration="3.79"/>
        <vehicle id="f_0.1" x="-70.92" y="-4.80" angle="90.00" type="DEFAULTVEHCILE" speed="0.00" pos="29.08" lane="E0_0" slope="0.00" acceleration="0.00"/>
        <vehicle id="f_1.0" x="-83.78" y="-78.28" angle="33.37" type="DEFAULTVEHCILE" speed="3.57" pos="27.06" lane="E5_0" slope="0.00" acceleration="3.79"/>
        <vehicle id="f_1.1" x="-48.79" y="-25.16" angle="33.37" type="DEFAULTVEHCILE" speed="0.00" pos="90.67" lane="E5_0" slope="0.00" acceleration="0.00"/>
        <vehicle id="f_2.0" x="-43.25" y="-1.60" angle="90.00" type="DEFAULTVEHCILE" speed="3.57" pos="56.75" lane="E0_1" slope="0.00" acceleration="3.79"/>
        <vehicle id="f_3.0" x="389.89" y="1.60" angle="270.00" type="DEFAULTVEHCILE" speed="3.57" pos="10.11" lane="-E2_1" slope="0.00" acceleration="3.79"/>
        <vehicle id="f_3.1" x="311.95" y="1.60" angle="270.00" type="DEFAULTVEHCILE" speed="0.00" pos="88.05" lane="-E2_1" slope="0.00" acceleration="0.00"/>
        <vehicle id="f_4.0" x="290.23" y="89.23" angle="215.86" type="DEFAULTVEHCILE" speed="3.57" pos="14.45" lane="E7_0" slope="0.00" acceleration="3.79"/>
        <vehicle id="f_4.1" x="266.33" y="56.15" angle="215.86" type="DEFAULTVEHCILE" speed="0.00" pos="55.26" lane="E7_0" slope="0.00" acceleration="0.00"/>
        <vehicle id="f_5.0" x="321.14" y="4.80" angle="270.00" type="DEFAULTVEHCILE" speed="3.57" pos="78.86" lane="-E2_0" slope="0.00" acceleration="3.79"/>
        <vehicle id="f_5.1" x="330.68" y="4.80" angle="270.00" type="DEFAULTVEHCILE" speed="0.00" pos="69.32" lane="-E2_0" slope="0.00" acceleration="0.00"/>
    </timestep>
    <timestep time="1.10">
        <vehicle id="EGOVEHICLE" x="393.35" y="4.80" angle="270.00" type="EGOVEHICLE" speed="3.73" pos="6.65" lane="-E2_0" slope="0.00" acceleration="5.66"/>
        <vehicle id="f_0.0" x="-85.25" y="-4.80" angle="90.00" type="DEFAULTVEHCILE" speed="3.85" pos="14.75" lane="E0_0" slope="0.00" acceleration="2.78"/>
        <vehicle id="f_0.1" x="-70.88" y="-4.80" angle="90.00" type="DEFAULTVEHCILE" speed="0.39" pos="29.12" lane="E0_0" slope="0.00" acceleration="3.94"/>
        <vehicle id="f_1.0" x="-83.57" y="-77.96" angle="33.37" type="DEFAULTVEHCILE" speed="3.85" pos="27.44" lane="E5_0" slope="0.00" acceleration="2.78"/>
        <vehicle id="f_1.1" x="-48.77" y="-25.12" angle="33.37" type="DEFAULTVEHCILE" speed="0.39" pos="90.71" lane="E5_0" slope="0.00" acceleration="3.94"/>
        <vehicle id="f_2.0" x="-42.86" y="-1.60" angle="90.00" type="DEFAULTVEHCILE" speed="3.91" pos="57.14" lane="E0_1" slope="0.00" acceleration="3.37"/>
        <vehicle id="f_3.0" x="389.51" y="1.60" angle="270.00" type="DEFAULTVEHCILE" speed="3.85" pos="10.49" lane="-E2_1" slope="0.00" acceleration="2.78"/>
        <vehicle id="f_3.1" x="311.91" y="1.60" angle="270.00" type="DEFAULTVEHCILE" speed="0.39" pos="88.09" lane="-E2_1" slope="0.00" acceleration="3.94"/>
        <vehicle id="f_4.0" x="290.01" y="88.91" angle="215.86" type="DEFAULTVEHCILE" speed="3.85" pos="14.84" lane="E7_0" slope="0.00" acceleration="2.78"/>
        <vehicle id="f_4.1" x="266.30" y="56.12" angle="215.86" type="DEFAULTVEHCILE" speed="0.39" pos="55.30" lane="E7_0" slope="0.00" acceleration="3.94"/>
        <vehicle id="f_5.0" x="320.75" y="4.80" angle="270.00" type="DEFAULTVEHCILE" speed="3.91" pos="79.25" lane="-E2_0" slope="0.00" acceleration="3.37"/>
        <vehicle id="f_5.1" x="330.64" y="4.80" angle="270.00" type="DEFAULTVEHCILE" speed="0.39" pos="69.36" lane="-E2_0" slope="0.00" acceleration="3.88"/>
    </timestep>
    <timestep time="1.20">
        <vehicle id="EGOVEHICLE" x="392.92" y="4.80" angle="270.00" type="EGOVEHICLE" speed="4.26" pos="7.08" lane="-E2_0" slope="0.00" acceleration="5.34"/>
        <vehicle id="f_0.0" x="-84.84" y="-4.80" angle="90.00" type="DEFAULTVEHCILE" speed="4.12" pos="15.16" lane="E0_0" slope="0.00" acceleration="2.68"/>
        <vehicle id="f_0.1" x="-70.80" y="-4.80" angle="90.00" type="DEFAULTVEHCILE" speed="0.77" pos="29.20" lane="E0_0" slope="0.00" acceleration="3.79"/>
        <vehicle id="f_1.0" x="-83.34" y="-77.62" angle="33.37" type="DEFAULTVEHCILE" speed="4.12" pos="27.86" lane="E5_0" slope="0.00" acceleration="2.68"/>
        <vehicle id="f_1.1" x="-48.72" y="-25.06" angle="33.37" type="DEFAULTVEHCILE" speed="0.77" pos="90.79" lane="E5_0" slope="0.00" acceleration="3.79"/>
        <vehicle id="f_2.0" x="-42.44" y="-1.60" angle="90.00" type="DEFAULTVEHCILE" speed="4.18" pos="57.56" lane="E0_1" slope="0.00" acceleration="2.77"/>
        <vehicle id="f_3.0" x="389.10" y="1.60" angle="270.00" type="DEFAULTVEHCILE" speed="4.12" pos="10.90" lane="-E2_1" slope="0.00" acceleration="2.68"/>
        <vehicle id="f_3.1" x="311.84" y="1.60" angle="270.00" type="DEFAULTVEHCILE" speed="0.77" pos="88.16" lane="-E2_1" slope="0.00" acceleration="3.79"/>
        <vehicle id="f_4.0" x="289.77" y="88.58" angle="215.86" type="DEFAULTVEHCILE" speed="4.12" pos="15.25" lane="E7_0" slope="0.00" acceleration="2.68"/>
        <vehicle id="f_4.1" x="266.26" y="56.06" angle="215.86" type="DEFAULTVEHCILE" speed="0.77" pos="55.38" lane="E7_0" slope="0.00" acceleration="3.79"/>
        <vehicle id="f_5.0" x="320.33" y="4.80" angle="270.00" type="DEFAULTVEHCILE" speed="4.20" pos="79.67" lane="-E2_0" slope="0.00" acceleration="2.94"/>
        <vehicle id="f_5.1" x="330.57" y="4.80" angle="270.00" type="DEFAULTVEHCILE" speed="0.76" pos="69.43" lane="-E2_0" slope="0.00" acceleration="3.74"/>
    </timestep>
    <timestep time="1.30">
        <vehicle id="EGOVEHICLE" x="392.44" y="4.80" angle="270.00" type="EGOVEHICLE" speed="4.81" pos="7.56" lane="-E2_0" slope="0.00" acceleration="5.47"/>
        <vehicle id="f_0.0" x="-84.40" y="-4.80" angle="90.00" type="DEFAULTVEHCILE" speed="4.37" pos="15.60" lane="E0_0" slope="0.00" acceleration="2.51"/>
        <vehicle id="f_0.1" x="-70.69" y="-4.80" angle="90.00" type="DEFAULTVEHCILE" speed="1.12" pos="29.31" lane="E0_0" slope="0.00" acceleration="3.51"/>
        <vehicle id="f_1.0" x="-83.10" y="-77.25" angle="33.37" type="DEFAULTVEHCILE" speed="4.37" pos="28.29" lane="E5_0" slope="0.00" acceleration="2.51"/>
        <vehicle id="f_1.1" x="-48.66" y="-24.96" angle="33.37" type="DEFAULTVEHCILE" speed="1.12" pos="90.90" lane="E5_0" slope="0.00" acceleration="3.51"/>
        <vehicle id="f_2.0" x="-41.99" y="-1.60" angle="90.00" type="DEFAULTVEHCILE" speed="4.48" pos="58.01" lane="E0_1" slope="0.00" acceleration="2.94"/>
        <vehicle id="f_3.0" x="388.66" y="1.60" angle="270.00" type="DEFAULTVEHCILE" speed="4.37" pos="11.34" lane="-E2_1" slope="0.00" acceleration="2.51"/>
        <vehicle id="f_3.1" x="311.72" y="1.60" angle="270.00" type="DEFAULTVEHCILE" speed="1.12" pos="88.28" lane="-E2_1" slope="0.00" acceleration="3.51"/>
        <vehicle id="f_4.0" x="289.51" y="88.23" angle="215.86" type="DEFAULTVEHCILE" speed="4.37" pos="15.69" lane="E7_0" slope="0.00" acceleration="2.51"/>
        <vehicle id="f_4.1" x="266.19" y="55.97" angle="215.86" type="DEFAULTVEHCILE" speed="1.12" pos="55.49" lane="E7_0" slope="0.00" acceleration="3.51"/>
        <vehicle id="f_5.0" x="319.88" y="4.80" angle="270.00" type="DEFAULTVEHCILE" speed="4.44" pos="80.12" lane="-E2_0" slope="0.00" acceleration="2.35"/>
        <vehicle id="f_5.1" x="330.45" y="4.80" angle="270.00" type="DEFAULTVEHCILE" speed="1.12" pos="69.55" lane="-E2_0" slope="0.00" acceleration="3.57"/>
    </timestep>
    <timestep time="1.40">
        <vehicle id="EGOVEHICLE" x="391.91" y="4.80" angle="270.00" type="EGOVEHICLE" speed="5.35" pos="8.09" lane="-E2_0" slope="0.00" acceleration="5.36"/>
        <vehicle id="f_0.0" x="-83.93" y="-4.80" angle="90.00" type="DEFAULTVEHCILE" speed="4.67" pos="16.07" lane="E0_0" slope="0.00" acceleration="3.06"/>
        <vehicle id="f_0.1" x="-70.54" y="-4.80" angle="90.00" type="DEFAULTVEHCILE" speed="1.52" pos="29.46" lane="E0_0" slope="0.00" acceleration="3.94"/>
        <vehicle id="f_1.0" x="-82.84" y="-76.86" angle="33.37" type="DEFAULTVEHCILE" speed="4.67" pos="28.76" lane="E5_0" slope="0.00" acceleration="3.06"/>
        <vehicle id="f_1.1" x="-48.58" y="-24.84" angle="33.37" type="DEFAULTVEHCILE" speed="1.52" pos="91.05" lane="E5_0" slope="0.00" acceleration="3.94"/>
        <vehicle id="f_2.0" x="-41.51" y="-1.60" angle="90.00" type="DEFAULTVEHCILE" speed="4.75" pos="58.49" lane="E0_1" slope="0.00" acceleration="2.68"/>
        <vehicle id="f_3.0" x="388.19" y="1.60" angle="270.00" type="DEFAULTVEHCILE" speed="4.67" pos="11.81" lane="-E2_1" slope="0.00" acceleration="3.06"/>
        <vehicle id="f_3.1" x="311.57" y="1.60" angle="270.00" type="DEFAULTVEHCILE" speed="1.52" pos="88.43" lane="-E2_1" slope="0.00" acceleration="3.94"/>
        <vehicle id="f_4.0" x="289.24" y="87.85" angle="215.86" type="DEFAULTVEHCILE" speed="4.67" pos="16.15" lane="E7_0" slope="0.00" acceleration="3.06"/>
        <vehicle id="f_4.1" x="266.10" y="55.85" angle="215.86" type="DEFAULTVEHCILE" speed="1.52" pos="55.64" lane="E7_0" slope="0.00" acceleration="3.94"/>
        <vehicle id="f_5.0" x="319.40" y="4.80" angle="270.00" type="DEFAULTVEHCILE" speed="4.82" pos="80.60" lane="-E2_0" slope="0.00" acceleration="3.85"/>
        <vehicle id="f_5.1" x="330.31" y="4.80" angle="270.00" type="DEFAULTVEHCILE" speed="1.48" pos="69.69" lane="-E2_0" slope="0.00" acceleration="3.64"/>
    </timestep>
    <timestep time="1.50">
        <vehicle id="EGOVEHICLE" x="391.34" y="4.80" angle="270.00" type="EGOVEHICLE" speed="5.74" pos="8.66" lane="-E2_0" slope="0.00" acceleration="3.96"/>
        <vehicle id="f_0.0" x="-83.43" y="-4.80" angle="90.00" type="DEFAULTVEHCILE" speed="5.03" pos="16.57" lane="E0_0" slope="0.00" acceleration="3.55"/>
        <vehicle id="f_0.1" x="-70.35" y="-4.80" angle="90.00" type="DEFAULTVEHCILE" speed="1.86" pos="29.65" lane="E0_0" slope="0.00" acceleration="3.42"/>
        <vehicle id="f_1.0" x="-82.56" y="-76.44" angle="33.37" type="DEFAULTVEHCILE" speed="5.03" pos="29.26" lane="E5_0" slope="0.00" acceleration="3.55"/>
        <vehicle id="f_1.1" x="-48.48" y="-24.68" angle="33.37" type="DEFAULTVEHCILE" speed="1.86" pos="91.24" lane="E5_0" slope="0.00" acceleration="3.42"/>
        <vehicle id="f_2.0" x="-41.02" y="-1.60" angle="90.00" type="DEFAULTVEHCILE" speed="4.98" pos="58.98" lane="E0_1" slope="0.00" acceleration="2.35"/>
        <vehicle id="f_3.0" x="387.69" y="1.60" angle="270.00" type="DEFAULTVEHCILE" speed="5.03" pos="12.31" lane="-E2_1" slope="0.00" acceleration="3.55"/>
        <vehicle id="f_3.1" x="311.39" y="1.60" angle="270.00" type="DEFAULTVEHCILE" speed="1.86" pos="88.61" lane="-E2_1" slope="0.00" acceleration="3.42"/>
        <vehicle id="f_4.0" x="288.94" y="87.44" angle="215.86" type="DEFAULTVEHCILE" speed="5.03" pos="16.66" lane="E7_0" slope="0.00" acceleration="3.55"/>
        <vehicle id="f_4.1" x="265.99" y="55.69" angle="215.86" type="DEFAULTVEHCILE" speed="1.86" pos="55.83" lane="E7_0" slope="0.00" acceleration="3.42"/>
        <vehicle id="f_5.0" x="318.89" y="4.80" angle="270.00" type="DEFAULTVEHCILE" speed="5.10" pos="81.11" lane="-E2_0" slope="0.00" acceleration="2.79"/>
        <vehicle id="f_5.1" x="330.12" y="4.80" angle="270.00" type="DEFAULTVEHCILE" speed="1.86" pos="69.88" lane="-E2_0" slope="0.00" acceleration="3.79"/>
    </timestep>
    <timestep time="1.60">
        <vehicle id="EGOVEHICLE" x="390.72" y="4.80" angle="270.00" type="EGOVEHICLE" speed="6.15" pos="9.28" lane="-E2_0" slope="0.00" acceleration="4.12"/>
        <vehicle id="f_0.0" x="-82.90" y="-4.80" angle="90.00" type="DEFAULTVEHCILE" speed="5.34" pos="17.10" lane="E0_0" slope="0.00" acceleration="3.12"/>
        <vehicle id="f_0.1" x="-70.13" y="-4.80" angle="90.00" type="DEFAULTVEHCILE" speed="2.21" pos="29.87" lane="E0_0" slope="0.00" acceleration="3.45"/>
        <vehicle id="f_1.0" x="-82.27" y="-76.00" angle="33.37" type="DEFAULTVEHCILE" speed="5.34" pos="29.80" lane="E5_0" slope="0.00" acceleration="3.12"/>
        <vehicle id="f_1.1" x="-48.36" y="-24.50" angle="33.37" type="DEFAULTVEHCILE" speed="2.21" pos="91.46" lane="E5_0" slope="0.00" acceleration="3.45"/>
        <vehicle id="f_2.0" x="-40.49" y="-1.60" angle="90.00" type="DEFAULTVEHCILE" speed="5.23" pos="59.51" lane="E0_1" slope="0.00" acceleration="2.51"/>
        <vehicle id="f_3.0" x="387.16" y="1.60" angle="270.00" type="DEFAULTVEHCILE" speed="5.34" pos="12.84" lane="-E2_1" slope="0.00" acceleration="3.12"/>
        <vehicle id="f_3.1" x="311.17" y="1.60" angle="270.00" type="DEFAULTVEHCILE" speed="2.21" pos="88.83" lane="-E2_1" slope="0.00" acceleration="3.45"/>
        <vehicle id="f_4.0" x="288.63" y="87.01" angle="215.86" type="DEFAULTVEHCILE" speed="5.34" pos="17.19" lane="E7_0" slope="0.00" acceleration="3.12"/>
        <vehicle id="f_4.1" x="265.87" y="55.52" angle="215.86" type="DEFAULTVEHCILE" speed="2.21" pos="56.05" lane="E7_0" slope="0.00" acceleration="3.45"/>
        <vehicle id="f_5.0" x="318.35" y="4.80" angle="270.00" type="DEFAULTVEHCILE" speed="5.40" pos="81.65" lane="-E2_0" slope="0.00" acceleration="3.03"/>
        <vehicle id="f_5.1" x="329.90" y="4.80" angle="270.00" type="DEFAULTVEHCILE" speed="2.21" pos="70.10" lane="-E2_0" slope="0.00" acceleration="3.51"/>
    </timestep>
    <timestep time="1.70">
        <vehicle id="EGOVEHICLE" x="390.06" y="4.80" angle="270.00" type="EGOVEHICLE" speed="6.59" pos="9.94" lane="-E2_0" slope="0.00" acceleration="4.42"/>
        <vehicle id="f_0.0" x="-82.34" y="-4.80" angle="90.00" type="DEFAULTVEHCILE" speed="5.56" pos="17.66" lane="E0_0" slope="0.00" acceleration="2.23"/>
        <vehicle id="f_0.1" x="-69.88" y="-4.80" angle="90.00" type="DEFAULTVEHCILE" speed="2.50" pos="30.12" lane="E0_0" slope="0.00" acceleration="2.93"/>
        <vehicle id="f_1.0" x="-81.97" y="-75.53" angle="33.37" type="DEFAULTVEHCILE" speed="5.56" pos="30.35" lane="E5_0" slope="0.00" acceleration="2.23"/>
        <vehicle id="f_1.1" x="-48.22" y="-24.29" angle="33.37" type="DEFAULTVEHCILE" speed="2.50" pos="91.71" lane="E5_0" slope="0.00" acceleration="2.93"/>
        <vehicle id="f_2.0" x="-39.93" y="-1.60" angle="90.00" type="DEFAULTVEHCILE" speed="5.62" pos="60.07" lane="E0_1" slope="0.00" acceleration="3.85"/>
        <vehicle id="f_3.0" x="386.60" y="1.60" angle="270.00" type="DEFAULTVEHCILE" speed="5.56" pos="13.40" lane="-E2_1" slope="0.00" acceleration="2.23"/>
        <vehicle id="f_3.1" x="310.92" y="1.60" angle="270.00" type="DEFAULTVEHCILE" speed="2.50" pos="89.08" lane="-E2_1" slope="0.00" acceleration="2.93"/>
        <vehicle id="f_4.0" x="288.30" y="86.56" angle="215.86" type="DEFAULTVEHCILE" speed="5.56" pos="17.75" lane="E7_0" slope="0.00" acceleration="2.23"/>
        <vehicle id="f_4.1" x="265.72" y="55.31" angle="215.86" type="DEFAULTVEHCILE" speed="2.50" pos="56.30" lane="E7_0" slope="0.00" acceleration="2.93"/>
        <vehicle id="f_5.0" x="317.79" y="4.80" angle="270.00" type="DEFAULTVEHCILE" speed="5.64" pos="82.21" lane="-E2_0" slope="0.00" acceleration="2.35"/>
        <vehicle id="f_5.1" x="329.65" y="4.80" angle="270.00" type="DEFAULTVEHCILE" speed="2.50" pos="70.35" lane="-E2_0" slope="0.00" acceleration="2.85"/>
    </timestep>
    <timestep time="1.80">
        <vehicle id="EGOVEHICLE" x="389.35" y="4.80" angle="270.00" type="EGOVEHICLE" speed="7.07" pos="10.65" lane="-E2_0" slope="0.00" acceleration="4.72"/>
        <vehicle id="f_0.0" x="-81.75" y="-4.80" angle="90.00" type="DEFAULTVEHCILE" speed="5.93" pos="18.25" lane="E0_0" slope="0.00" acceleration="3.63"/>
        <vehicle id="f_0.1" x="-69.59" y="-4.80" angle="90.00" type="DEFAULTVEHCILE" speed="2.88" pos="30.41" lane="E0_0" slope="0.00" acceleration="3.80"/>
        <vehicle id="f_1.0" x="-81.64" y="-75.04" angle="33.37" type="DEFAULTVEHCILE" speed="5.93" pos="30.95" lane="E5_0" slope="0.00" acceleration="3.63"/>
        <vehicle id="f_1.1" x="-48.06" y="-24.05" angle="33.37" type="DEFAULTVEHCILE" speed="2.88" pos="92.00" lane="E5_0" slope="0.00" acceleration="3.80"/>
        <vehicle id="f_2.0" x="-39.34" y="-1.60" angle="90.00" type="DEFAULTVEHCILE" speed="5.92" pos="60.66" lane="E0_1" slope="0.00" acceleration="3.06"/>
        <vehicle id="f_3.0" x="386.01" y="1.60" angle="270.00" type="DEFAULTVEHCILE" speed="5.93" pos="13.99" lane="-E2_1" slope="0.00" acceleration="3.63"/>
        <vehicle id="f_3.1" x="310.63" y="1.60" angle="270.00" type="DEFAULTVEHCILE" speed="2.88" pos="89.37" lane="-E2_1" slope="0.00" acceleration="3.80"/>
        <vehicle id="f_4.0" x="287.96" y="86.08" angle="215.86" type="DEFAULTVEHCILE" speed="5.93" pos="18.34" lane="E7_0" slope="0.00" acceleration="3.63"/>
        <vehicle id="f_4.1" x="265.55" y="55.08" angle="215.86" type="DEFAULTVEHCILE" speed="2.88" pos="56.58" lane="E7_0" slope="0.00" acceleration="3.80"/>
        <vehicle id="f_5.0" x="317.19" y="4.80" angle="270.00" type="DEFAULTVEHCILE" speed="6.01" pos="82.81" lane="-E2_0" slope="0.00" acceleration="3.72"/>