<?xml version="1.0" encoding="UTF-8"?>

<!-- generated on 2023-12-15 17:17:09 by Eclipse SUMO GUI Version 1.18.0
<configuration xmlns:xsi="http://www.w3.org/2001/XMLSchema-instance" xsi:noNamespaceSchemaLocation="http://sumo.dlr.de/xsd/sumoConfiguration.xsd">

    <input>
        <net-file value="C:\Users\vinay\Desktop\ECE_699\Intersection\study1-explore_SUMO\scenario_3\scene3.net.xml"/>
        <route-files value="C:\Users\vinay\Desktop\ECE_699\Intersection\study1-explore_SUMO\scenario_3\scene3.rou.xml"/>
    </input>

    <output>
        <fcd-output value="C:\Users\vinay\Desktop\ECE_699\Intersection\study1-explore_SUMO\scenario_3\outputs/fcd_op.xml"/>
        <fcd-output.geo value="true"/>
        <fcd-output.signals value="true"/>
        <fcd-output.distance value="true"/>
        <fcd-output.acceleration value="true"/>
        <summary-output value="C:\Users\vinay\Desktop\ECE_699\Intersection\study1-explore_SUMO\scenario_3\outputs/sum_op.xml"/>
        <lanechange-output value="C:\Users\vinay\Desktop\ECE_699\Intersection\study1-explore_SUMO\scenario_3\outputs/lane_change_op.xml"/>
        <lanechange-output.started value="true"/>
        <lanechange-output.ended value="true"/>
        <lanechange-output.xy value="true"/>
        <collision-output value="C:\Users\vinay\Desktop\ECE_699\Intersection\study1-explore_SUMO\scenario_3\outputs/collision.xml"/>
        <statistic-output value="C:\Users\vinay\Desktop\ECE_699\Intersection\study1-explore_SUMO\scenario_3\outputs/stats.xml"/>
    </output>

    <time>
        <step-length value="0.1"/>
    </time>

    <processing>
        <collision.action value="remove"/>
        <collision.stoptime value="30.00"/>
        <collision.check-junctions value="true"/>
    </processing>

</configuration>
-->

<fcd-export xmlns:xsi="http://www.w3.org/2001/XMLSchema-instance" xsi:noNamespaceSchemaLocation="http://sumo.dlr.de/xsd/fcd_file.xsd">
    <timestep time="0.00">
        <vehicle id="v_1" x="194.900000" y="101.600000" angle="270.00" type="t_0" speed="0.00" pos="5.10" lane="-E4_0" slope="0.00" signals="0" acceleration="0.00" distance="5.10"/>
    </timestep>
    <timestep time="0.10">
        <vehicle id="v_1" x="194.898510" y="101.600000" angle="270.00" type="t_0" speed="0.01" pos="5.10" lane="-E4_0" slope="0.00" signals="10" acceleration="0.15" distance="5.10"/>
    </timestep>
    <timestep time="0.20">
        <vehicle id="v_0" x="98.400000" y="194.900000" angle="180.00" type="DEFAULT_VEHTYPE" speed="0.00" pos="5.10" lane="E5_0" slope="0.00" signals="0" acceleration="0.00" distance="5.10"/>
        <vehicle id="v_1" x="194.894266" y="101.600000" angle="270.00" type="t_0" speed="0.04" pos="5.11" lane="-E4_0" slope="0.00" signals="10" acceleration="0.28" distance="5.11"/>
    </timestep>
    <timestep time="0.30">
        <vehicle id="v_0" x="98.400000" y="194.874279" angle="180.00" type="DEFAULT_VEHTYPE" speed="0.26" pos="5.13" lane="E5_0" slope="0.00" signals="2" acceleration="2.57" distance="5.13"/>
        <vehicle id="v_1" x="194.885149" y="101.600000" angle="270.00" type="t_0" speed="0.09" pos="5.11" lane="-E4_0" slope="0.00" signals="10" acceleration="0.49" distance="5.11"/>
    </timestep>
    <timestep time="0.40">
        <vehicle id="v_0" x="98.400000" y="194.822830" angle="180.00" type="DEFAULT_VEHTYPE" speed="0.51" pos="5.18" lane="E5_0" slope="0.00" signals="2" acceleration="2.57" distance="5.18"/>
        <vehicle id="v_1" x="194.867972" y="101.600000" angle="270.00" type="t_0" speed="0.17" pos="5.13" lane="-E4_0" slope="0.00" signals="2" acceleration="0.81" distance="5.13"/>
    </timestep>
    <timestep time="0.50">
        <vehicle id="v_0" x="98.400000" y="194.747983" angle="180.00" type="DEFAULT_VEHTYPE" speed="0.75" pos="5.25" lane="E5_0" slope="0.00" signals="2" acceleration="2.34" distance="5.25"/>
        <vehicle id="v_1" x="194.838660" y="101.600000" angle="270.00" type="t_0" speed="0.29" pos="5.16" lane="-E4_0" slope="0.00" signals="2" acceleration="1.21" distance="5.16"/>
    </timestep>
    <timestep time="0.60">
        <vehicle id="v_0" x="98.400000" y="194.650268" angle="180.00" type="DEFAULT_VEHTYPE" speed="0.98" pos="5.35" lane="E5_0" slope="0.00" signals="2" acceleration="2.29" distance="5.35"/>
        <vehicle id="v_1" x="194.792963" y="101.600000" angle="270.00" type="t_0" speed="0.46" pos="5.21" lane="-E4_0" slope="0.00" signals="2" acceleration="1.64" distance="5.21"/>
    </timestep>
    <timestep time="0.70">
        <vehicle id="v_0" x="98.400000" y="194.530898" angle="180.00" type="DEFAULT_VEHTYPE" speed="1.19" pos="5.47" lane="E5_0" slope="0.00" signals="2" acceleration="2.17" distance="5.47"/>
        <vehicle id="v_1" x="194.727286" y="101.600000" angle="270.00" type="t_0" speed="0.66" pos="5.27" lane="-E4_0" slope="0.00" signals="2" acceleration="2.00" distance="5.27"/>
    </timestep>
    <timestep time="0.80">
        <vehicle id="v_0" x="98.400000" y="194.387384" angle="180.00" type="DEFAULT_VEHTYPE" speed="1.44" pos="5.61" lane="E5_0" slope="0.00" signals="2" acceleration="2.41" distance="5.61"/>
        <vehicle id="v_1" x="194.639092" y="101.600000" angle="270.00" type="t_0" speed="0.88" pos="5.36" lane="-E4_0" slope="0.00" signals="2" acceleration="2.25" distance="5.36"/>
    </timestep>
    <timestep time="0.90">
        <vehicle id="v_0" x="98.400000" y="194.225154" angle="180.00" type="DEFAULT_VEHTYPE" speed="1.62" pos="5.77" lane="E5_0" slope="0.00" signals="2" acceleration="1.87" distance="5.77"/>
        <vehicle id="v_1" x="194.526812" y="101.600000" angle="270.00" type="t_0" speed="1.12" pos="5.47" lane="-E4_0" slope="0.00" signals="2" acceleration="2.41" distance="5.47"/>
    </timestep>
    <timestep time="1.00">
        <vehicle id="v_0" x="98.400000" y="194.039709" angle="180.00" type="DEFAULT_VEHTYPE" speed="1.85" pos="5.96" lane="E5_0" slope="0.00" signals="2" acceleration="2.32" distance="5.96"/>
        <vehicle id="v_1" x="194.389554" y="101.600000" angle="270.00" type="t_0" speed="1.37" pos="5.61" lane="-E4_0" slope="0.00" signals="2" acceleration="2.50" distance="5.61"/>
    </timestep>
    <timestep time="1.10">
        <vehicle id="v_0" x="98.400000" y="193.837324" angle="180.00" type="DEFAULT_VEHTYPE" speed="2.02" pos="6.16" lane="E5_0" slope="0.00" signals="2" acceleration="1.69" distance="6.16"/>
        <vehicle id="v_1" x="194.226834" y="101.600000" angle="270.00" type="t_0" speed="1.63" pos="5.77" lane="-E4_0" slope="0.00" signals="2" acceleration="2.55" distance="5.77"/>
    </timestep>
    <timestep time="1.20">
        <vehicle id="v_0" x="98.400000" y="193.612496" angle="180.00" type="DEFAULT_VEHTYPE" speed="2.25" pos="6.39" lane="E5_0" slope="0.00" signals="2" acceleration="2.24" distance="6.39"/>
        <vehicle id="v_1" x="194.038397" y="101.600000" angle="270.00" type="t_0" speed="1.88" pos="5.96" lane="-E4_0" slope="0.00" signals="2" acceleration="2.57" distance="5.96"/>
    </timestep>
    <timestep time="1.30">
        <vehicle id="v_0" x="98.400000" y="193.362548" angle="180.00" type="DEFAULT_VEHTYPE" speed="2.50" pos="6.64" lane="E5_0" slope="0.00" signals="2" acceleration="2.51" distance="6.64"/>
        <vehicle id="v_1" x="193.824115" y="101.600000" angle="270.00" type="t_0" speed="2.14" pos="6.18" lane="-E4_0" slope="0.00" signals="2" acceleration="2.58" distance="6.18"/>
    </timestep>
    <timestep time="1.40">
        <vehicle id="v_0" x="98.400000" y="193.094639" angle="180.00" type="DEFAULT_VEHTYPE" speed="2.68" pos="6.91" lane="E5_0" slope="0.00" signals="2" acceleration="1.80" distance="6.91"/>
        <vehicle id="v_1" x="193.583850" y="101.600000" angle="270.00" type="t_0" speed="2.40" pos="6.42" lane="-E4_0" slope="0.00" signals="2" acceleration="2.60" distance="6.42"/>
    </timestep>
    <timestep time="1.50">
        <vehicle id="v_0" x="98.400000" y="192.811009" angle="180.00" type="DEFAULT_VEHTYPE" speed="2.84" pos="7.19" lane="E5_0" slope="0.00" signals="2" acceleration="1.57" distance="7.19"/>
        <vehicle id="v_1" x="193.317611" y="101.600000" angle="270.00" type="t_0" speed="2.66" pos="6.68" lane="-E4_0" slope="0.00" signals="2" acceleration="2.60" distance="6.68"/>
    </timestep>
    <timestep time="1.60">
        <vehicle id="v_0" x="98.400000" y="192.512778" angle="180.00" type="DEFAULT_VEHTYPE" speed="2.98" pos="7.49" lane="E5_0" slope="0.00" signals="2" acceleration="1.46" distance="7.49"/>
        <vehicle id="v_1" x="193.025410" y="101.600000" angle="270.00" type="t_0" speed="2.92" pos="6.97" lane="-E4_0" slope="0.00" signals="2" acceleration="2.60" distance="6.97"/>
    </timestep>
    <timestep time="1.70">
        <vehicle id="v_0" x="98.400000" y="192.189369" angle="180.00" type="DEFAULT_VEHTYPE" speed="3.23" pos="7.81" lane="E5_0" slope="0.00" signals="2" acceleration="2.52" distance="7.81"/>
        <vehicle id="v_1" x="192.707260" y="101.600000" angle="270.00" type="t_0" speed="3.18" pos="7.29" lane="-E4_0" slope="0.00" signals="2" acceleration="2.59" distance="7.29"/>
    </timestep>
    <timestep time="1.80">
        <vehicle id="v_0" x="98.400000" y="191.848592" angle="180.00" type="DEFAULT_VEHTYPE" speed="3.41" pos="8.15" lane="E5_0" slope="0.00" signals="2" acceleration="1.74" distance="8.15"/>
        <vehicle id="v_1" x="192.362547" y="101.600000" angle="270.00" type="t_0" speed="3.45" pos="7.64" lane="-E4_0" slope="0.00" signals="2" acceleration="2.66" distance="7.64"/>
    </timestep>
    <timestep time="1.90">
        <vehicle id="v_0" x="98.400000" y="191.482226" angle="180.00" type="DEFAULT_VEHTYPE" speed="3.66" pos="8.52" lane="E5_0" slope="0.00" signals="2" acceleration="2.56" distance="8.52"/>
        <vehicle id="v_1" x="192.002838" y="101.600000" angle="270.00" type="t_0" speed="3.60" pos="8.00" lane="-E4_0" slope="0.00" signals="2" acceleration="1.50" distance="8.00"/>
    </timestep>
    <timestep time="2.00">
        <vehicle id="v_0" x="98.400000" y="191.098143" angle="180.00" type="DEFAULT_VEHTYPE" speed="3.84" pos="8.90" lane="E5_0" slope="0.00" signals="2" acceleration="1.77" distance="8.90"/>
        <vehicle id="v_1" x="191.632980" y="101.600000" angle="270.00" type="t_0" speed="3.70" pos="8.37" lane="-E4_0" slope="0.00" signals="2" acceleration="1.01" distance="8.37"/>
    </timestep>
    <timestep time="2.10">
        <vehicle id="v_0" x="98.400000" y="190.698674" angle="180.00" type="DEFAULT_VEHTYPE" speed="3.99" pos="9.30" lane="E5_0" slope="0.00" signals="2" acceleration="1.54" distance="9.30"/>
        <vehicle id="v_1" x="191.250782" y="101.600000" angle="270.00" type="t_0" speed="3.82" pos="8.75" lane="-E4_0" slope="0.00" signals="2" acceleration="1.23" distance="8.75"/>
    </timestep>
    <timestep time="2.20">
        <vehicle id="v_0" x="98.400000" y="190.279610" angle="180.00" type="DEFAULT_VEHTYPE" speed="4.19" pos="9.72" lane="E5_0" slope="0.00" signals="2" acceleration="1.96" distance="9.72"/>
        <vehicle id="v_1" x="190.856473" y="101.600000" angle="270.00" type="t_0" speed="3.94" pos="9.14" lane="-E4_0" slope="0.00" signals="2" acceleration="1.21" distance="9.14"/>
    </timestep>
    <timestep time="2.30">
        <vehicle id="v_0" x="98.400000" y="189.847494" angle="180.00" type="DEFAULT_VEHTYPE" speed="4.32" pos="10.15" lane="E5_0" slope="0.00" signals="2" acceleration="1.31" distance="10.15"/>
        <vehicle id="v_1" x="190.453982" y="101.600000" angle="270.00" type="t_0" speed="4.02" pos="9.55" lane="-E4_0" slope="0.00" signals="2" acceleration="0.82" distance="9.55"/>
    </timestep>
    <timestep time="2.40">
        <vehicle id="v_0" x="98.400000" y="189.389504" angle="180.00" type="DEFAULT_VEHTYPE" speed="4.58" pos="10.61" lane="E5_0" slope="0.00" signals="2" acceleration="2.59" distance="10.61"/>
        <vehicle id="v_1" x="190.041436" y="101.600000" angle="270.00" type="t_0" speed="4.13" pos="9.96" lane="-E4_0" slope="0.00" signals="2" acceleration="1.01" distance="9.96"/>
    </timestep>
    <timestep time="2.50">
        <vehicle id="v_0" x="98.400000" y="188.913575" angle="180.00" type="DEFAULT_VEHTYPE" speed="4.76" pos="11.09" lane="E5_0" slope="0.00" signals="2" acceleration="1.79" distance="11.09"/>
        <vehicle id="v_1" x="189.626563" y="101.600000" angle="270.00" type="t_0" speed="4.15" pos="10.37" lane="-E4_0" slope="0.00" signals="2" acceleration="0.23" distance="10.37"/>
    </timestep>
    <timestep time="2.60">
        <vehicle id="v_0" x="98.400000" y="188.416119" angle="180.00" type="DEFAULT_VEHTYPE" speed="4.97" pos="11.58" lane="E5_0" slope="0.00" signals="2" acceleration="2.15" distance="11.58"/>
        <vehicle id="v_1" x="189.214365" y="101.600000" angle="270.00" type="t_0" speed="4.12" pos="10.79" lane="-E4_0" slope="0.00" signals="2" acceleration="-0.27" distance="10.79"/>
    </timestep>
    <timestep time="2.70">
        <vehicle id="v_0" x="98.400000" y="187.901240" angle="180.00" type="DEFAULT_VEHTYPE" speed="5.15" pos="12.10" lane="E5_0" slope="0.00" signals="2" acceleration="1.74" distance="12.10"/>
        <vehicle id="v_1" x="188.809297" y="101.600000" angle="270.00" type="t_0" speed="4.05" pos="11.19" lane="-E4_0" slope="0.00" signals="10" acceleration="-0.71" distance="11.19"/>
    </timestep>
    <timestep time="2.80">
        <vehicle id="v_0" x="98.400000" y="187.370296" angle="180.00" type="DEFAULT_VEHTYPE" speed="5.31" pos="12.63" lane="E5_0" slope="0.00" signals="2" acceleration="1.61" distance="12.63"/>
        <vehicle id="v_1" x="188.409951" y="101.600000" angle="270.00" type="t_0" speed="3.99" pos="11.59" lane="-E4_0" slope="0.00" signals="10" acceleration="-0.57" distance="11.59"/>
    </timestep>
    <timestep time="2.90">
        <vehicle id="v_0" x="98.400000" y="186.816577" angle="180.00" type="DEFAULT_VEHTYPE" speed="5.54" pos="13.18" lane="E5_0" slope="0.00" signals="2" acceleration="2.28" distance="13.18"/>
        <vehicle id="v_1" x="188.013899" y="101.600000" angle="270.00" type="t_0" speed="3.96" pos="11.99" lane="-E4_0" slope="0.00" signals="10" acceleration="-0.33" distance="11.99"/>
    </timestep>
    <timestep time="3.00">
        <vehicle id="v_0" x="98.400000" y="186.248150" angle="180.00" type="DEFAULT_VEHTYPE" speed="5.68" pos="13.75" lane="E5_0" slope="0.00" signals="2" acceleration="1.47" distance="13.75"/>
        <vehicle id="v_1" x="187.616143" y="101.600000" angle="270.00" type="t_0" speed="3.98" pos="12.38" lane="-E4_0" slope="0.00" signals="2" acceleration="0.17" distance="12.38"/>
    </timestep>
    <timestep time="3.10">
        <vehicle id="v_0" x="98.400000" y="185.664769" angle="180.00" type="DEFAULT_VEHTYPE" speed="5.83" pos="14.34" lane="E5_0" slope="0.00" signals="2" acceleration="1.50" distance="14.34"/>
        <vehicle id="v_1" x="187.215496" y="101.600000" angle="270.00" type="t_0" speed="4.01" pos="12.78" lane="-E4_0" slope="0.00" signals="2" acceleration="0.29" distance="12.78"/>
    </timestep>
    <timestep time="3.20">
        <vehicle id="v_0" x="98.400000" y="185.059075" angle="180.00" type="DEFAULT_VEHTYPE" speed="6.06" pos="14.94" lane="E5_0" slope="0.00" signals="2" acceleration="2.23" distance="14.94"/>
        <vehicle id="v_1" x="186.807997" y="101.600000" angle="270.00" type="t_0" speed="4.07" pos="13.19" lane="-E4_0" slope="0.00" signals="2" acceleration="0.69" distance="13.19"/>
    </timestep>
    <timestep time="3.30">
        <vehicle id="v_0" x="98.400000" y="184.435716" angle="180.00" type="DEFAULT_VEHTYPE" speed="6.23" pos="15.56" lane="E5_0" slope="0.00" signals="2" acceleration="1.77" distance="15.56"/>
        <vehicle id="v_1" x="186.400452" y="101.600000" angle="270.00" type="t_0" speed="4.08" pos="13.60" lane="-E4_0" slope="0.00" signals="2" acceleration="0.00" distance="13.60"/>
    </timestep>
    <timestep time="3.40">
        <vehicle id="v_0" x="98.400000" y="183.799175" angle="180.00" type="DEFAULT_VEHTYPE" speed="6.37" pos="16.20" lane="E5_0" slope="0.00" signals="2" acceleration="1.32" distance="16.20"/>
        <vehicle id="v_1" x="185.997859" y="101.600000" angle="270.00" type="t_0" speed="4.03" pos="14.00" lane="-E4_0" slope="0.00" signals="10" acceleration="-0.50" distance="14.00"/>
    </timestep>
    <timestep time="3.50">
        <vehicle id="v_0" x="98.400000" y="183.137712" angle="180.00" type="DEFAULT_VEHTYPE" speed="6.61" pos="16.86" lane="E5_0" slope="0.00" signals="2" acceleration="2.49" distance="16.86"/>
        <vehicle id="v_1" x="185.596987" y="101.600000" angle="270.00" type="t_0" speed="4.01" pos="14.40" lane="-E4_0" slope="0.00" signals="2" acceleration="-0.17" distance="14.40"/>
    </timestep>
    <timestep time="3.60">
        <vehicle id="v_0" x="98.400000" y="182.457124" angle="180.00" type="DEFAULT_VEHTYPE" speed="6.81" pos="17.54" lane="E5_0" slope="0.00" signals="2" acceleration="1.91" distance="17.54"/>
        <vehicle id="v_1" x="185.202834" y="101.600000" angle="270.00" type="t_0" speed="3.94" pos="14.80" lane="-E4_0" slope="0.00" signals="10" acceleration="-0.67" distance="14.80"/>
    </timestep>
    <timestep time="3.70">
        <vehicle id="v_0" x="98.400000" y="181.757555" angle="180.00" type="DEFAULT_VEHTYPE" speed="7.00" pos="18.24" lane="E5_0" slope="0.00" signals="2" acceleration="1.90" distance="18.24"/>
        <vehicle id="v_1" x="184.817986" y="101.600000" angle="270.00" type="t_0" speed="3.85" pos="15.18" lane="-E4_0" slope="0.00" signals="10" acceleration="-0.93" distance="15.18"/>
    </timestep>
    <timestep time="3.80">
        <vehicle id="v_0" x="98.400000" y="181.042709" angle="180.00" type="DEFAULT_VEHTYPE" speed="7.15" pos="18.96" lane="E5_0" slope="0.00" signals="2" acceleration="1.53" distance="18.96"/>
        <vehicle id="v_1" x="184.440171" y="101.600000" angle="270.00" type="t_0" speed="3.78" pos="15.56" lane="-E4_0" slope="0.00" signals="10" acceleration="-0.70" distance="15.56"/>
    </timestep>
    <timestep time="3.90">
        <vehicle id="v_0" x="98.400000" y="180.308145" angle="180.00" type="DEFAULT_VEHTYPE" speed="7.35" pos="19.69" lane="E5_0" slope="0.00" signals="2" acceleration="1.97" distance="19.69"/>
        <vehicle id="v_1" x="184.074389" y="101.600000" angle="270.00" type="t_0" speed="3.66" pos="15.93" lane="-E4_0" slope="0.00" signals="10" acceleration="-1.20" distance="15.93"/>
    </timestep>
    <timestep time="4.00">
        <vehicle id="v_0" x="98.400000" y="179.555329" angle="180.00" type="DEFAULT_VEHTYPE" speed="7.53" pos="20.44" lane="E5_0" slope="0.00" signals="2" acceleration="1.83" distance="20.44"/>
        <vehicle id="v_1" x="183.719132" y="101.600000" angle="270.00" type="t_0" speed="3.55" pos="16.28" lane="-E4_0" slope="0.00" signals="10" acceleration="-1.05" distance="16.28"/>
    </timestep>
    <timestep time="4.10">
        <vehicle id="v_0" x="98.400000" y="178.781297" angle="180.00" type="DEFAULT_VEHTYPE" speed="7.74" pos="21.22" lane="E5_0" slope="0.00" signals="2" acceleration="2.12" distance="21.22"/>
        <vehicle id="v_1" x="183.373715" y="101.600000" angle="270.00" type="t_0" speed="3.45" pos="16.63" lane="-E4_0" slope="0.00" signals="10" acceleration="-0.98" distance="16.63"/>
    </timestep>
    <timestep time="4.20">
        <vehicle id="v_0" x="98.400000" y="177.989586" angle="180.00" type="DEFAULT_VEHTYPE" speed="7.92" pos="22.01" lane="E5_0" slope="0.00" signals="2" acceleration="1.77" distance="22.01"/>
        <vehicle id="v_1" x="183.038708" y="101.600000" angle="270.00" type="t_0" speed="3.35" pos="16.96" lane="-E4_0" slope="0.00" signals="10" acceleration="-1.04" distance="16.96"/>
    </timestep>
    <timestep time="4.30">
        <vehicle id="v_0" x="98.400000" y="177.178427" angle="180.00" type="DEFAULT_VEHTYPE" speed="8.11" pos="22.82" lane="E5_0" slope="0.00" signals="2" acceleration="1.94" distance="22.82"/>
        <vehicle id="v_1" x="182.712626" y="101.600000" angle="270.00" type="t_0" speed="3.26" pos="17.29" lane="-E4_0" slope="0.00" signals="10" acceleration="-0.89" distance="17.29"/>
    </timestep>
    <timestep time="4.40">
        <vehicle id="v_0" x="98.400000" y="176.349960" angle="180.00" type="DEFAULT_VEHTYPE" speed="8.28" pos="23.65" lane="E5_0" slope="0.00" signals="2" acceleration="1.73" distance="23.65"/>
        <vehicle id="v_1" x="182.390883" y="101.600000" angle="270.00" type="t_0" speed="3.22" pos="17.61" lane="-E4_0" slope="0.00" signals="10" acceleration="-0.43" distance="17.61"/>
    </timestep>
    <timestep time="4.50">
        <vehicle id="v_0" x="98.400000" y="175.498972" angle="180.00" type="DEFAULT_VEHTYPE" speed="8.51" pos="24.50" lane="E5_0" slope="0.00" signals="2" acceleration="2.25" distance="24.50"/>
        <vehicle id="v_1" x="182.074012" y="101.600000" angle="270.00" type="t_0" speed="3.17" pos="17.93" lane="-E4_0" slope="0.00" signals="10" acceleration="-0.49" distance="17.93"/>
    </timestep>
    <timestep time="4.60">
        <vehicle id="v_0" x="98.400000" y="174.626972" angle="180.00" type="DEFAULT_VEHTYPE" speed="8.72" pos="25.37" lane="E5_0" slope="0.00" signals="2" acceleration="2.10" distance="25.37"/>
        <vehicle id="v_1" x="181.760092" y="101.600000" angle="270.00" type="t_0" speed="3.14" pos="18.24" lane="-E4_0" slope="0.00" signals="10" acceleration="-0.30" distance="18.24"/>
    </timestep>
    <timestep time="4.70">
        <vehicle id="v_0" x="98.400000" y="173.735426" angle="180.00" type="DEFAULT_VEHTYPE" speed="8.92" pos="26.26" lane="E5_0" slope="0.00" signals="2" acceleration="1.95" distance="26.26"/>
        <vehicle id="v_1" x="181.446475" y="101.600000" angle="270.00" type="t_0" speed="3.14" pos="18.55" lane="-E4_0" slope="0.00" signals="2" acceleration="-0.03" distance="18.55"/>
    </timestep>
    <timestep time="4.80">
        <vehicle id="v_0" x="98.400000" y="172.821051" angle="180.00" type="DEFAULT_VEHTYPE" speed="9.14" pos="27.18" lane="E5_0" slope="0.00" signals="2" acceleration="2.28" distance="27.18"/>
        <vehicle id="v_1" x="181.138160" y="101.600000" angle="270.00" type="t_0" speed="3.08" pos="18.86" lane="-E4_0" slope="0.00" signals="10" acceleration="-0.53" distance="18.86"/>
    </timestep>
    <timestep time="4.90">
        <vehicle id="v_0" x="98.400000" y="171.893562" angle="180.00" type="DEFAULT_VEHTYPE" speed="9.27" pos="28.11" lane="E5_0" slope="0.00" signals="2" acceleration="1.31" distance="28.11"/>
        <vehicle id="v_1" x="180.833916" y="101.600000" angle="270.00" type="t_0" speed="3.04" pos="19.17" lane="-E4_0" slope="0.00" signals="10" acceleration="-0.41" distance="19.17"/>
    </timestep>
    <timestep time="5.00">
        <vehicle id="f_0.0" x="101.600000" y="5.100000" angle="0.00" type="DEFAULT_VEHTYPE" speed="0.00" pos="5.10" lane="-E6_0" slope="0.00" signals="0" acceleration="0.00" distance="5.10"/>
        <vehicle id="f_1.0" x="5.100000" y="98.400000" angle="90.00" type="DEFAULT_VEHTYPE" speed="0.00" pos="5.10" lane="E3_0" slope="0.00" signals="0" acceleration="0.00" distance="5.10"/>
        <vehicle id="v_0" x="98.400000" y="170.952486" angle="180.00" type="DEFAULT_VEHTYPE" speed="9.41" pos="29.05" lane="E5_0" slope="0.00" signals="2" acceleration="1.36" distance="29.05"/>
        <vehicle id="v_1" x="180.528743" y="101.600000" angle="270.00" type="t_0" speed="3.05" pos="19.47" lane="-E4_0" slope="0.00" signals="2" acceleration="0.09" distance="19.47"/>
    </timestep>
    <timestep time="5.10">
        <vehicle id="f_0.0" x="101.600000" y="5.125359" angle="0.00" type="DEFAULT_VEHTYPE" speed="0.25" pos="5.13" lane="-E6_0" slope="0.00" signals="0" acceleration="2.54" distance="5.13"/>
        <vehicle id="f_1.0" x="5.125602" y="98.400000" angle="90.00" type="DEFAULT_VEHTYPE" speed="0.26" pos="5.13" lane="E3_0" slope="0.00" signals="0" acceleration="2.56" distance="5.13"/>
        <vehicle id="v_0" x="98.400000" y="169.997132" angle="180.00" type="DEFAULT_VEHTYPE" speed="9.55" pos="30.00" lane="E5_0" slope="0.00" signals="2" acceleration="1.43" distance="30.00"/>
        <vehicle id="v_1" x="180.220954" y="101.600000" angle="270.00" type="t_0" speed="3.08" pos="19.78" lane="-E4_0" slope="0.00" signals="2" acceleration="0.26" distance="19.78"/>
    </timestep>
    <timestep time="5.20">
        <vehicle id="f_0.0" x="101.600000" y="5.176490" angle="0.00" type="DEFAULT_VEHTYPE" speed="0.51" pos="5.18" lane="-E6_0" slope="0.00" signals="0" acceleration="2.58" distance="5.18"/>
        <vehicle id="f_1.0" x="5.176040" y="98.400000" angle="90.00" type="DEFAULT_VEHTYPE" speed="0.50" pos="5.18" lane="E3_0" slope="0.00" signals="0" acceleration="2.48" distance="5.18"/>
        <vehicle id="v_0" x="98.400000" y="169.018961" angle="180.00" type="DEFAULT_VEHTYPE" speed="9.78" pos="30.98" lane="E5_0" slope="0.00" signals="2" acceleration="2.28" distance="30.98"/>
        <vehicle id="v_1" x="179.915551" y="101.600000" angle="270.00" type="t_0" speed="3.05" pos="20.08" lane="-E4_0" slope="0.00" signals="10" acceleration="-0.24" distance="20.08"/>
    </timestep>
    <timestep time="5.30">
        <vehicle id="f_0.0" x="101.600000" y="5.250007" angle="0.00" type="DEFAULT_VEHTYPE" speed="0.74" pos="5.25" lane="-E6_0" slope="0.00" signals="0" acceleration="2.24" distance="5.25"/>
        <vehicle id="f_1.0" x="5.252446" y="98.400000" angle="90.00" type="DEFAULT_VEHTYPE" speed="0.76" pos="5.25" lane="E3_0" slope="0.00" signals="0" acceleration="2.60" distance="5.25"/>
        <vehicle id="v_0" x="98.400000" y="168.018518" angle="180.00" type="DEFAULT_VEHTYPE" speed="10.00" pos="31.98" lane="E5_0" slope="0.00" signals="2" acceleration="2.23" distance="31.98"/>
        <vehicle id="v_1" x="179.609990" y="101.600000" angle="270.00" type="t_0" speed="3.06" pos="20.39" lane="-E4_0" slope="0.00" signals="2" acceleration="0.02" distance="20.39"/>
    </timestep>
    <timestep time="5.40">
        <vehicle id="f_0.0" x="101.600000" y="5.348697" angle="0.00" type="DEFAULT_VEHTYPE" speed="0.99" pos="5.35" lane="-E6_0" slope="0.00" signals="0" acceleration="2.52" distance="5.35"/>
        <vehicle id="f_1.0" x="5.353183" y="98.400000" angle="90.00" type="DEFAULT_VEHTYPE" speed="1.01" pos="5.35" lane="E3_0" slope="0.00" signals="0" acceleration="2.43" distance="5.35"/>
        <vehicle id="v_0" x="98.400000" y="166.993749" angle="180.00" type="DEFAULT_VEHTYPE" speed="10.25" pos="33.01" lane="E5_0" slope="0.00" signals="2" acceleration="2.43" distance="33.01"/>
        <vehicle id="v_1" x="179.307623" y="101.600000" angle="270.00" type="t_0" speed="3.02" pos="20.69" lane="-E4_0" slope="0.00" signals="10" acceleration="-0.32" distance="20.69"/>
    </timestep>
    <timestep time="5.50">
        <vehicle id="f_0.0" x="101.600000" y="5.467831" angle="0.00" type="DEFAULT_VEHTYPE" speed="1.19" pos="5.47" lane="-E6_0" slope="0.00" signals="0" acceleration="2.04" distance="5.47"/>
        <vehicle id="f_1.0" x="5.476689" y="98.400000" angle="90.00" type="DEFAULT_VEHTYPE" speed="1.24" pos="5.48" lane="E3_0" slope="0.00" signals="0" acceleration="2.28" distance="5.48"/>
        <vehicle id="v_0" x="98.400000" y="165.944768" angle="180.00" type="DEFAULT_VEHTYPE" speed="10.49" pos="34.06" lane="E5_0" slope="0.00" signals="2" acceleration="2.42" distance="34.06"/>
        <vehicle id="v_1" x="179.006575" y="101.600000" angle="270.00" type="t_0" speed="3.01" pos="20.99" lane="-E4_0" slope="0.00" signals="2" acceleration="-0.13" distance="20.99"/>
    </timestep>
    <timestep time="5.60">
        <vehicle id="f_0.0" x="101.600000" y="5.606294" angle="0.00" type="DEFAULT_VEHTYPE" speed="1.38" pos="5.61" lane="-E6_0" slope="0.00" signals="0" acceleration="1.93" distance="5.61"/>
        <vehicle id="f_1.0" x="5.624474" y="98.400000" angle="90.00" type="DEFAULT_VEHTYPE" speed="1.48" pos="5.62" lane="E3_0" slope="0.00" signals="0" acceleration="2.43" distance="5.62"/>
        <vehicle id="v_0" x="98.400000" y="164.878819" angle="180.00" type="DEFAULT_VEHTYPE" speed="10.66" pos="35.12" lane="E5_0" slope="0.00" signals="2" acceleration="1.70" distance="35.12"/>
        <vehicle id="v_1" x="178.701844" y="101.600000" angle="270.00" type="t_0" speed="3.05" pos="21.30" lane="-E4_0" slope="0.00" signals="2" acceleration="0.37" distance="21.30"/>
    </timestep>
    <timestep time="5.70">
        <vehicle id="f_0.0" x="101.600000" y="5.767392" angle="0.00" type="DEFAULT_VEHTYPE" speed="1.61" pos="5.77" lane="-E6_0" slope="0.00" signals="0" acceleration="2.26" distance="5.77"/>
        <vehicle id="f_1.0" x="5.791087" y="98.400000" angle="90.00" type="DEFAULT_VEHTYPE" speed="1.67" pos="5.79" lane="E3_0" slope="0.00" signals="0" acceleration="1.88" distance="5.79"/>
        <vehicle id="v_0" x="98.400000" y="163.794660" angle="180.00" type="DEFAULT_VEHTYPE" speed="10.84" pos="36.21" lane="E5_0" slope="0.00" signals="2" acceleration="1.82" distance="36.21"/>
        <vehicle id="v_1" x="178.388432" y="101.600000" angle="270.00" type="t_0" speed="3.13" pos="21.61" lane="-E4_0" slope="0.00" signals="2" acceleration="0.87" distance="21.61"/>
    </timestep>
    <timestep time="5.80">
        <vehicle id="f_0.0" x="101.600000" y="5.946931" angle="0.00" type="DEFAULT_VEHTYPE" speed="1.80" pos="5.95" lane="-E6_0" slope="0.00" signals="0" acceleration="1.84" distance="5.95"/>
        <vehicle id="f_1.0" x="5.977486" y="98.400000" angle="90.00" type="DEFAULT_VEHTYPE" speed="1.86" pos="5.98" lane="E3_0" slope="0.00" signals="0" acceleration="1.98" distance="5.98"/>
        <vehicle id="v_0" x="98.400000" y="162.687724" angle="180.00" type="DEFAULT_VEHTYPE" speed="11.07" pos="37.31" lane="E5_0" slope="0.00" signals="2" acceleration="2.28" distance="37.31"/>