<?xml version="1.0" encoding="UTF-8"?>

<!-- generated on 2023-12-15 17:15:55 by Eclipse SUMO GUI Version 1.18.0
<configuration xmlns:xsi="http://www.w3.org/2001/XMLSchema-instance" xsi:noNamespaceSchemaLocation="http://sumo.dlr.de/xsd/sumoConfiguration.xsd">

    <input>
        <net-file value="C:\Users\vinay\Desktop\ECE_699\Intersection\study1-explore_SUMO\scenario_1\intersec.net.xml"/>
        <route-files value="C:\Users\vinay\Desktop\ECE_699\Intersection\study1-explore_SUMO\scenario_1\intersec2.rou.xml"/>
    </input>

    <output>
        <fcd-output value="C:\Users\vinay\Desktop\ECE_699\Intersection\study1-explore_SUMO\scenario_1\outputs/fcd_op.xml"/>
        <fcd-output.geo value="true"/>
        <fcd-output.signals value="true"/>
        <fcd-output.distance value="true"/>
        <fcd-output.acceleration value="true"/>
        <summary-output value="C:\Users\vinay\Desktop\ECE_699\Intersection\study1-explore_SUMO\scenario_1\outputs/sum_op.xml"/>
        <lanechange-output value="C:\Users\vinay\Desktop\ECE_699\Intersection\study1-explore_SUMO\scenario_1\outputs/lane_change_op.xml"/>
        <lanechange-output.started value="true"/>
        <lanechange-output.ended value="true"/>
        <lanechange-output.xy value="true"/>
        <collision-output value="C:\Users\vinay\Desktop\ECE_699\Intersection\study1-explore_SUMO\scenario_1\outputs/collision.xml"/>
        <statistic-output value="C:\Users\vinay\Desktop\ECE_699\Intersection\study1-explore_SUMO\scenario_1\outputs/stats.xml"/>
    </output>

    <time>
        <step-length value="0.1"/>
    </time>

    <processing>
        <collision.action value="remove"/>
        <collision.stoptime value="30.00"/>
        <collision.check-junctions value="true"/>
    </processing>

</configuration>
-->

<fcd-export xmlns:xsi="http://www.w3.org/2001/XMLSchema-instance" xsi:noNamespaceSchemaLocation="http://sumo.dlr.de/xsd/fcd_file.xsd">
    <timestep time="0.00">
        <vehicle id="v_0" x="0.000000" y="-8.000000" angle="90.00" type="DEFAULT_VEHTYPE" speed="0.00" pos="0.00" lane="E0_0" slope="0.00" signals="0" acceleration="0.00" distance="0.00"/>
        <vehicle id="v_1" x="200.000000" y="8.000000" angle="270.00" type="col_veh_ego" speed="0.00" pos="0.00" lane="-E1_0" slope="0.00" signals="0" acceleration="0.00" distance="0.00"/>
        <vehicle id="v_6" x="5.100000" y="-1.600000" angle="90.00" type="DEFAULT_VEHTYPE" speed="0.00" pos="5.10" lane="E0_2" slope="0.00" signals="0" acceleration="0.00" distance="5.10"/>
    </timestep>
    <timestep time="0.10">
        <vehicle id="v_0" x="0.024980" y="-8.000000" angle="90.00" type="DEFAULT_VEHTYPE" speed="0.25" pos="0.02" lane="E0_0" slope="0.00" signals="0" acceleration="2.50" distance="0.02"/>
        <vehicle id="v_1" x="199.974836" y="8.000000" angle="270.00" type="col_veh_ego" speed="0.25" pos="0.03" lane="-E1_0" slope="0.00" signals="0" acceleration="2.52" distance="0.03"/>
        <vehicle id="v_6" x="5.125280" y="-1.600000" angle="90.00" type="DEFAULT_VEHTYPE" speed="0.25" pos="5.13" lane="E0_2" slope="0.00" signals="0" acceleration="2.53" distance="5.13"/>
    </timestep>
    <timestep time="0.20">
        <vehicle id="v_0" x="0.075521" y="-8.000000" angle="90.00" type="DEFAULT_VEHTYPE" speed="0.51" pos="0.08" lane="E0_0" slope="0.00" signals="0" acceleration="2.56" distance="0.08"/>
        <vehicle id="v_1" x="199.923915" y="8.000000" angle="270.00" type="col_veh_ego" speed="0.51" pos="0.08" lane="-E1_0" slope="0.00" signals="0" acceleration="2.58" distance="0.08"/>
        <vehicle id="v_6" x="5.175261" y="-1.600000" angle="90.00" type="DEFAULT_VEHTYPE" speed="0.50" pos="5.18" lane="E0_2" slope="0.00" signals="0" acceleration="2.47" distance="5.18"/>
    </timestep>
    <timestep time="0.30">
        <vehicle id="v_0" x="0.149154" y="-8.000000" angle="90.00" type="DEFAULT_VEHTYPE" speed="0.74" pos="0.15" lane="E0_0" slope="0.00" signals="0" acceleration="2.31" distance="0.15"/>
        <vehicle id="v_1" x="199.848899" y="8.000000" angle="270.00" type="col_veh_ego" speed="0.75" pos="0.15" lane="-E1_0" slope="0.00" signals="0" acceleration="2.41" distance="0.15"/>
        <vehicle id="v_6" x="5.250736" y="-1.600000" angle="90.00" type="DEFAULT_VEHTYPE" speed="0.75" pos="5.25" lane="E0_2" slope="0.00" signals="0" acceleration="2.55" distance="5.25"/>
    </timestep>
    <timestep time="0.40">
        <vehicle id="v_0" x="0.247442" y="-8.000000" angle="90.00" type="DEFAULT_VEHTYPE" speed="0.98" pos="0.25" lane="E0_0" slope="0.00" signals="0" acceleration="2.47" distance="0.25"/>
        <vehicle id="v_1" x="199.748532" y="8.000000" angle="270.00" type="col_veh_ego" speed="1.00" pos="0.25" lane="-E1_0" slope="0.00" signals="0" acceleration="2.54" distance="0.25"/>
        <vehicle id="v_4" x="194.900000" y="4.800000" angle="270.00" type="col_cfm" speed="0.00" pos="5.10" lane="-E1_1" slope="0.00" signals="0" acceleration="0.00" distance="5.10"/>
        <vehicle id="v_6" x="5.349041" y="-1.600000" angle="90.00" type="DEFAULT_VEHTYPE" speed="0.98" pos="5.35" lane="E0_2" slope="0.00" signals="0" acceleration="2.28" distance="5.35"/>
    </timestep>
    <timestep time="0.50">
        <vehicle id="v_0" x="0.369875" y="-8.000000" angle="90.00" type="DEFAULT_VEHTYPE" speed="1.22" pos="0.37" lane="E0_0" slope="0.00" signals="0" acceleration="2.41" distance="0.37"/>
        <vehicle id="v_1" x="199.627901" y="8.000000" angle="270.00" type="col_veh_ego" speed="1.21" pos="0.37" lane="-E1_0" slope="0.00" signals="0" acceleration="2.03" distance="0.37"/>
        <vehicle id="v_4" x="194.874607" y="4.800000" angle="270.00" type="col_cfm" speed="0.25" pos="5.13" lane="-E1_1" slope="0.00" signals="0" acceleration="2.54" distance="5.13"/>
        <vehicle id="v_6" x="5.469581" y="-1.600000" angle="90.00" type="DEFAULT_VEHTYPE" speed="1.21" pos="5.47" lane="E0_2" slope="0.00" signals="0" acceleration="2.22" distance="5.47"/>
    </timestep>
    <timestep time="0.60">
        <vehicle id="v_0" x="0.515712" y="-8.000000" angle="90.00" type="DEFAULT_VEHTYPE" speed="1.46" pos="0.52" lane="E0_0" slope="0.00" signals="0" acceleration="2.34" distance="0.52"/>
        <vehicle id="v_1" x="199.487955" y="8.000000" angle="270.00" type="col_veh_ego" speed="1.40" pos="0.51" lane="-E1_0" slope="0.00" signals="0" acceleration="1.93" distance="0.51"/>
        <vehicle id="v_2" x="108.000000" y="-100.000000" angle="0.00" type="DEFAULT_VEHTYPE" speed="0.00" pos="0.00" lane="-E3_0" slope="0.00" signals="0" acceleration="0.00" distance="0.00"/>
        <vehicle id="v_4" x="194.825517" y="4.800000" angle="270.00" type="col_cfm" speed="0.49" pos="5.17" lane="-E1_1" slope="0.00" signals="0" acceleration="2.37" distance="5.17"/>
        <vehicle id="v_6" x="5.612155" y="-1.600000" angle="90.00" type="DEFAULT_VEHTYPE" speed="1.43" pos="5.61" lane="E0_2" slope="0.00" signals="0" acceleration="2.20" distance="5.61"/>
    </timestep>
    <timestep time="0.70">
        <vehicle id="v_0" x="0.680665" y="-8.000000" angle="90.00" type="DEFAULT_VEHTYPE" speed="1.65" pos="0.68" lane="E0_0" slope="0.00" signals="0" acceleration="1.91" distance="0.68"/>
        <vehicle id="v_1" x="199.329036" y="8.000000" angle="270.00" type="col_veh_ego" speed="1.59" pos="0.67" lane="-E1_0" slope="0.00" signals="0" acceleration="1.90" distance="0.67"/>
        <vehicle id="v_2" x="108.000000" y="-99.974418" angle="0.00" type="DEFAULT_VEHTYPE" speed="0.26" pos="0.03" lane="-E3_0" slope="0.00" signals="0" acceleration="2.56" distance="0.03"/>
        <vehicle id="v_4" x="194.750916" y="4.800000" angle="270.00" type="col_cfm" speed="0.75" pos="5.25" lane="-E1_1" slope="0.00" signals="0" acceleration="2.55" distance="5.25"/>
        <vehicle id="v_6" x="5.780079" y="-1.600000" angle="90.00" type="DEFAULT_VEHTYPE" speed="1.68" pos="5.78" lane="E0_2" slope="0.00" signals="0" acceleration="2.54" distance="5.78"/>
    </timestep>
    <timestep time="0.80">
        <vehicle id="v_0" x="0.865076" y="-8.000000" angle="90.00" type="DEFAULT_VEHTYPE" speed="1.84" pos="0.87" lane="E0_0" slope="0.00" signals="0" acceleration="1.95" distance="0.87"/>
        <vehicle id="v_1" x="199.144587" y="8.000000" angle="270.00" type="col_veh_ego" speed="1.84" pos="0.86" lane="-E1_0" slope="0.00" signals="2" acceleration="2.55" distance="0.86"/>
        <vehicle id="v_2" x="108.000000" y="-99.923153" angle="0.00" type="DEFAULT_VEHTYPE" speed="0.51" pos="0.08" lane="-E3_0" slope="0.00" signals="0" acceleration="2.57" distance="0.08"/>
        <vehicle id="v_4" x="194.676315" y="4.800000" angle="270.00" type="col_cfm" speed="0.75" pos="5.32" lane="-E1_1" slope="0.00" signals="0" acceleration="0.00" distance="5.32"/>
        <vehicle id="v_6" x="5.964422" y="-1.600000" angle="90.00" type="DEFAULT_VEHTYPE" speed="1.84" pos="5.96" lane="E0_2" slope="0.00" signals="0" acceleration="1.64" distance="5.96"/>
    </timestep>
    <timestep time="0.90">
        <vehicle id="v_0" x="1.065160" y="-8.000000" angle="90.00" type="DEFAULT_VEHTYPE" speed="2.00" pos="1.07" lane="E0_0" slope="0.00" signals="0" acceleration="1.57" distance="1.07"/>
        <vehicle id="v_1" x="198.937231" y="8.000000" angle="270.00" type="col_veh_ego" speed="2.07" pos="1.06" lane="-E1_0" slope="0.00" signals="2" acceleration="2.29" distance="1.06"/>
        <vehicle id="v_2" x="108.000000" y="-99.847153" angle="0.00" type="DEFAULT_VEHTYPE" speed="0.76" pos="0.15" lane="-E3_0" slope="0.00" signals="0" acceleration="2.47" distance="0.15"/>
        <vehicle id="v_4" x="194.601714" y="4.800000" angle="270.00" type="col_cfm" speed="0.75" pos="5.40" lane="-E1_1" slope="0.00" signals="0" acceleration="0.00" distance="5.40"/>
        <vehicle id="v_6" x="6.170908" y="-1.600000" angle="90.00" type="DEFAULT_VEHTYPE" speed="2.06" pos="6.17" lane="E0_2" slope="0.00" signals="0" acceleration="2.21" distance="6.17"/>
    </timestep>
    <timestep time="1.00">
        <vehicle id="v_0" x="1.288270" y="-8.000000" angle="90.00" type="DEFAULT_VEHTYPE" speed="2.23" pos="1.29" lane="E0_0" slope="0.00" signals="0" acceleration="2.30" distance="1.29"/>
        <vehicle id="v_1" x="198.703889" y="8.000000" angle="270.00" type="col_veh_ego" speed="2.33" pos="1.30" lane="-E1_0" slope="0.00" signals="2" acceleration="2.60" distance="1.30"/>
        <vehicle id="v_2" x="108.000000" y="-99.749879" angle="0.00" type="DEFAULT_VEHTYPE" speed="0.97" pos="0.25" lane="-E3_0" slope="0.00" signals="0" acceleration="2.13" distance="0.25"/>
        <vehicle id="v_4" x="194.527113" y="4.800000" angle="270.00" type="col_cfm" speed="0.75" pos="5.47" lane="-E1_1" slope="0.00" signals="0" acceleration="0.00" distance="5.47"/>
        <vehicle id="v_6" x="6.396200" y="-1.600000" angle="90.00" type="DEFAULT_VEHTYPE" speed="2.25" pos="6.40" lane="E0_2" slope="0.00" signals="0" acceleration="1.88" distance="6.40"/>
    </timestep>
    <timestep time="1.10">
        <vehicle id="v_0" x="1.528843" y="-8.000000" angle="90.00" type="DEFAULT_VEHTYPE" speed="2.41" pos="1.53" lane="E0_0" slope="0.00" signals="0" acceleration="1.75" distance="1.53"/>
        <vehicle id="v_1" x="198.446585" y="8.000000" angle="270.00" type="col_veh_ego" speed="2.57" pos="1.55" lane="-E1_0" slope="0.00" signals="2" acceleration="2.40" distance="1.55"/>
        <vehicle id="v_2" x="108.000000" y="-99.632322" angle="0.00" type="DEFAULT_VEHTYPE" speed="1.18" pos="0.37" lane="-E3_0" slope="0.00" signals="0" acceleration="2.03" distance="0.37"/>
        <vehicle id="v_4" x="194.452512" y="4.800000" angle="270.00" type="col_cfm" speed="0.75" pos="5.55" lane="-E1_1" slope="0.00" signals="0" acceleration="0.00" distance="5.55"/>
        <vehicle id="v_6" x="6.643718" y="-1.600000" angle="90.00" type="DEFAULT_VEHTYPE" speed="2.48" pos="6.64" lane="E0_2" slope="0.00" signals="0" acceleration="2.22" distance="6.64"/>
    </timestep>
    <timestep time="1.20">
        <vehicle id="v_0" x="1.794149" y="-8.000000" angle="90.00" type="DEFAULT_VEHTYPE" speed="2.65" pos="1.79" lane="E0_0" slope="0.00" signals="0" acceleration="2.47" distance="1.79"/>
        <vehicle id="v_1" x="198.168297" y="8.000000" angle="270.00" type="col_veh_ego" speed="2.78" pos="1.83" lane="-E1_0" slope="0.00" signals="2" acceleration="2.10" distance="1.83"/>
        <vehicle id="v_2" x="108.000000" y="-99.491831" angle="0.00" type="DEFAULT_VEHTYPE" speed="1.40" pos="0.51" lane="-E3_0" slope="0.00" signals="0" acceleration="2.29" distance="0.51"/>
        <vehicle id="v_4" x="194.377911" y="4.800000" angle="270.00" type="col_cfm" speed="0.75" pos="5.62" lane="-E1_1" slope="0.00" signals="0" acceleration="0.00" distance="5.62"/>
        <vehicle id="v_6" x="6.912908" y="-1.600000" angle="90.00" type="DEFAULT_VEHTYPE" speed="2.69" pos="6.91" lane="E0_2" slope="0.00" signals="0" acceleration="2.17" distance="6.91"/>
    </timestep>
    <timestep time="1.30">
        <vehicle id="v_0" x="2.073671" y="-8.000000" angle="90.00" type="DEFAULT_VEHTYPE" speed="2.80" pos="2.07" lane="E0_0" slope="0.00" signals="0" acceleration="1.42" distance="2.07"/>
        <vehicle id="v_1" x="197.868914" y="8.000000" angle="270.00" type="col_veh_ego" speed="2.99" pos="2.13" lane="-E1_0" slope="0.00" signals="2" acceleration="2.11" distance="2.13"/>
        <vehicle id="v_2" x="108.000000" y="-99.327935" angle="0.00" type="DEFAULT_VEHTYPE" speed="1.64" pos="0.67" lane="-E3_0" slope="0.00" signals="0" acceleration="2.34" distance="0.67"/>
        <vehicle id="v_4" x="194.303310" y="4.800000" angle="270.00" type="col_cfm" speed="0.75" pos="5.70" lane="-E1_1" slope="0.00" signals="0" acceleration="0.00" distance="5.70"/>
        <vehicle id="v_6" x="7.202331" y="-1.600000" angle="90.00" type="DEFAULT_VEHTYPE" speed="2.89" pos="7.20" lane="E0_2" slope="0.00" signals="0" acceleration="2.02" distance="7.20"/>
    </timestep>
    <timestep time="1.40">
        <vehicle id="v_0" x="2.367155" y="-8.000000" angle="90.00" type="DEFAULT_VEHTYPE" speed="2.93" pos="2.37" lane="E0_0" slope="0.00" signals="0" acceleration="1.40" distance="2.37"/>
        <vehicle id="v_1" x="197.547996" y="8.000000" angle="270.00" type="col_veh_ego" speed="3.21" pos="2.45" lane="-E1_0" slope="0.00" signals="2" acceleration="2.15" distance="2.45"/>
        <vehicle id="v_2" x="108.000000" y="-99.141685" angle="0.00" type="DEFAULT_VEHTYPE" speed="1.86" pos="0.86" lane="-E3_0" slope="0.00" signals="0" acceleration="2.24" distance="0.86"/>
        <vehicle id="v_4" x="194.228709" y="4.800000" angle="270.00" type="col_cfm" speed="0.75" pos="5.77" lane="-E1_1" slope="0.00" signals="0" acceleration="0.00" distance="5.77"/>
        <vehicle id="v_6" x="7.516737" y="-1.600000" angle="90.00" type="DEFAULT_VEHTYPE" speed="3.14" pos="7.52" lane="E0_2" slope="0.00" signals="0" acceleration="2.50" distance="7.52"/>
    </timestep>
    <timestep time="1.50">
        <vehicle id="v_0" x="2.680317" y="-8.000000" angle="90.00" type="DEFAULT_VEHTYPE" speed="3.13" pos="2.68" lane="E0_0" slope="0.00" signals="0" acceleration="1.97" distance="2.68"/>
        <vehicle id="v_1" x="197.202803" y="8.000000" angle="270.00" type="col_veh_ego" speed="3.45" pos="2.80" lane="-E1_0" slope="0.00" signals="2" acceleration="2.43" distance="2.80"/>
        <vehicle id="v_2" x="108.000000" y="-98.931154" angle="0.00" type="DEFAULT_VEHTYPE" speed="2.11" pos="1.07" lane="-E3_0" slope="0.00" signals="0" acceleration="2.43" distance="1.07"/>
        <vehicle id="v_4" x="194.154108" y="4.800000" angle="270.00" type="col_cfm" speed="0.75" pos="5.85" lane="-E1_1" slope="0.00" signals="0" acceleration="0.00" distance="5.85"/>
        <vehicle id="v_6" x="7.847550" y="-1.600000" angle="90.00" type="DEFAULT_VEHTYPE" speed="3.31" pos="7.85" lane="E0_2" slope="0.00" signals="0" acceleration="1.64" distance="7.85"/>
    </timestep>
    <timestep time="1.60">
        <vehicle id="v_0" x="3.012208" y="-8.000000" angle="90.00" type="DEFAULT_VEHTYPE" speed="3.32" pos="3.01" lane="E0_0" slope="0.00" signals="0" acceleration="1.87" distance="3.01"/>
        <vehicle id="v_1" x="196.837778" y="8.000000" angle="270.00" type="col_veh_ego" speed="3.65" pos="3.16" lane="-E1_0" slope="0.00" signals="2" acceleration="1.98" distance="3.16"/>
        <vehicle id="v_2" x="108.000000" y="-98.703879" angle="0.00" type="DEFAULT_VEHTYPE" speed="2.27" pos="1.30" lane="-E3_0" slope="0.00" signals="0" acceleration="1.67" distance="1.30"/>
        <vehicle id="v_4" x="194.079507" y="4.800000" angle="270.00" type="col_cfm" speed="0.75" pos="5.92" lane="-E1_1" slope="0.00" signals="0" acceleration="0.00" distance="5.92"/>
        <vehicle id="v_6" x="8.199132" y="-1.600000" angle="90.00" type="DEFAULT_VEHTYPE" speed="3.52" pos="8.20" lane="E0_2" slope="0.00" signals="0" acceleration="2.08" distance="8.20"/>
    </timestep>
    <timestep time="1.70">
        <vehicle id="v_0" x="3.360758" y="-8.000000" angle="90.00" type="DEFAULT_VEHTYPE" speed="3.49" pos="3.36" lane="E0_0" slope="0.00" signals="0" acceleration="1.67" distance="3.36"/>
        <vehicle id="v_1" x="196.450316" y="8.000000" angle="270.00" type="col_veh_ego" speed="3.87" pos="3.55" lane="-E1_0" slope="0.00" signals="2" acceleration="2.24" distance="3.55"/>
        <vehicle id="v_2" x="108.000000" y="-98.455214" angle="0.00" type="DEFAULT_VEHTYPE" speed="2.49" pos="1.54" lane="-E3_0" slope="0.00" signals="0" acceleration="2.14" distance="1.54"/>
        <vehicle id="v_4" x="194.004906" y="4.800000" angle="270.00" type="col_cfm" speed="0.75" pos="6.00" lane="-E1_1" slope="0.00" signals="0" acceleration="0.00" distance="6.00"/>
        <vehicle id="v_6" x="8.563874" y="-1.600000" angle="90.00" type="DEFAULT_VEHTYPE" speed="3.65" pos="8.56" lane="E0_2" slope="0.00" signals="0" acceleration="1.32" distance="8.56"/>
    </timestep>
    <timestep time="1.80">
        <vehicle id="v_0" x="3.733574" y="-8.000000" angle="90.00" type="DEFAULT_VEHTYPE" speed="3.73" pos="3.73" lane="E0_0" slope="0.00" signals="0" acceleration="2.43" distance="3.73"/>
        <vehicle id="v_1" x="196.039481" y="8.000000" angle="270.00" type="col_veh_ego" speed="4.11" pos="3.96" lane="-E1_0" slope="0.00" signals="2" acceleration="2.34" distance="3.96"/>
        <vehicle id="v_2" x="108.000000" y="-98.189836" angle="0.00" type="DEFAULT_VEHTYPE" speed="2.65" pos="1.81" lane="-E3_0" slope="0.00" signals="0" acceleration="1.67" distance="1.81"/>
        <vehicle id="v_4" x="193.930305" y="4.800000" angle="270.00" type="col_cfm" speed="0.75" pos="6.07" lane="-E1_1" slope="0.00" signals="0" acceleration="0.00" distance="6.07"/>
        <vehicle id="v_6" x="8.952671" y="-1.600000" angle="90.00" type="DEFAULT_VEHTYPE" speed="3.89" pos="8.95" lane="E0_2" slope="0.00" signals="0" acceleration="2.41" distance="8.95"/>
    </timestep>
    <timestep time="1.90">
        <vehicle id="v_0" x="4.122072" y="-8.000000" angle="90.00" type="DEFAULT_VEHTYPE" speed="3.88" pos="4.12" lane="E0_0" slope="0.00" signals="0" acceleration="1.57" distance="4.12"/>
        <vehicle id="v_1" x="195.603779" y="8.000000" angle="270.00" type="col_veh_ego" speed="4.36" pos="4.40" lane="-E1_0" slope="0.00" signals="2" acceleration="2.49" distance="4.40"/>
        <vehicle id="v_2" x="108.000000" y="-97.905339" angle="0.00" type="DEFAULT_VEHTYPE" speed="2.84" pos="2.09" lane="-E3_0" slope="0.00" signals="0" acceleration="1.91" distance="2.09"/>
        <vehicle id="v_4" x="193.855704" y="4.800000" angle="270.00" type="col_cfm" speed="0.75" pos="6.14" lane="-E1_1" slope="0.00" signals="0" acceleration="0.00" distance="6.14"/>
        <vehicle id="v_6" x="9.354995" y="-1.600000" angle="90.00" type="DEFAULT_VEHTYPE" speed="4.02" pos="9.35" lane="E0_2" slope="0.00" signals="0" acceleration="1.35" distance="9.35"/>
    </timestep>
    <timestep time="2.00">
        <vehicle id="v_0" x="4.534183" y="-8.000000" angle="90.00" type="DEFAULT_VEHTYPE" speed="4.12" pos="4.53" lane="E0_0" slope="0.00" signals="0" acceleration="2.36" distance="4.53"/>
        <vehicle id="v_1" x="195.144673" y="8.000000" angle="270.00" type="col_veh_ego" speed="4.59" pos="4.86" lane="-E1_0" slope="0.00" signals="2" acceleration="2.34" distance="4.86"/>
        <vehicle id="v_2" x="108.000000" y="-97.606731" angle="0.00" type="DEFAULT_VEHTYPE" speed="2.99" pos="2.39" lane="-E3_0" slope="0.00" signals="0" acceleration="1.41" distance="2.39"/>
        <vehicle id="v_4" x="193.781103" y="4.800000" angle="270.00" type="col_cfm" speed="0.75" pos="6.22" lane="-E1_1" slope="0.00" signals="0" acceleration="0.00" distance="6.22"/>
        <vehicle id="v_6" x="9.771228" y="-1.600000" angle="90.00" type="DEFAULT_VEHTYPE" speed="4.16" pos="9.77" lane="E0_2" slope="0.00" signals="0" acceleration="1.39" distance="9.77"/>
    </timestep>
    <timestep time="2.10">
        <vehicle id="v_0" x="4.961362" y="-8.000000" angle="90.00" type="DEFAULT_VEHTYPE" speed="4.27" pos="4.96" lane="E0_0" slope="0.00" signals="0" acceleration="1.51" distance="4.96"/>
        <vehicle id="v_1" x="194.660393" y="8.000000" angle="270.00" type="col_veh_ego" speed="4.84" pos="5.34" lane="-E1_0" slope="0.00" signals="2" acceleration="2.52" distance="5.34"/>
        <vehicle id="v_2" x="108.000000" y="-97.292381" angle="0.00" type="DEFAULT_VEHTYPE" speed="3.14" pos="2.71" lane="-E3_0" slope="0.00" signals="0" acceleration="1.57" distance="2.71"/>
        <vehicle id="v_4" x="193.706502" y="4.800000" angle="270.00" type="col_cfm" speed="0.75" pos="6.29" lane="-E1_1" slope="0.00" signals="0" acceleration="0.00" distance="6.29"/>
        <vehicle id="v_6" x="10.211648" y="-1.600000" angle="90.00" type="DEFAULT_VEHTYPE" speed="4.40" pos="10.21" lane="E0_2" slope="0.00" signals="0" acceleration="2.42" distance="10.21"/>
    </timestep>
    <timestep time="2.20">
        <vehicle id="v_0" x="5.402606" y="-8.000000" angle="90.00" type="DEFAULT_VEHTYPE" speed="4.41" pos="5.40" lane="E0_0" slope="0.00" signals="0" acceleration="1.41" distance="5.40"/>
        <vehicle id="v_1" x="194.152391" y="8.000000" angle="270.00" type="col_veh_ego" speed="5.08" pos="5.85" lane="-E1_0" slope="0.00" signals="2" acceleration="2.37" distance="5.85"/>
        <vehicle id="v_2" x="108.000000" y="-96.956865" angle="0.00" type="DEFAULT_VEHTYPE" speed="3.36" pos="3.04" lane="-E3_0" slope="0.00" signals="0" acceleration="2.12" distance="3.04"/>
        <vehicle id="v_4" x="193.631901" y="4.800000" angle="270.00" type="col_cfm" speed="0.75" pos="6.37" lane="-E1_1" slope="0.00" signals="0" acceleration="0.00" distance="6.37"/>
        <vehicle id="v_6" x="10.674433" y="-1.600000" angle="90.00" type="DEFAULT_VEHTYPE" speed="4.63" pos="10.67" lane="E0_2" slope="0.00" signals="0" acceleration="2.24" distance="10.67"/>
    </timestep>
    <timestep time="2.30">
        <vehicle id="v_0" x="5.862420" y="-8.000000" angle="90.00" type="DEFAULT_VEHTYPE" speed="4.60" pos="5.86" lane="E0_0" slope="0.00" signals="0" acceleration="1.86" distance="5.86"/>
        <vehicle id="v_1" x="193.620113" y="8.000000" angle="270.00" type="col_veh_ego" speed="5.32" pos="6.38" lane="-E1_0" slope="0.00" signals="2" acceleration="2.43" distance="6.38"/>
        <vehicle id="v_2" x="108.000000" y="-96.606729" angle="0.00" type="DEFAULT_VEHTYPE" speed="3.50" pos="3.39" lane="-E3_0" slope="0.00" signals="0" acceleration="1.46" distance="3.39"/>
        <vehicle id="v_4" x="193.557300" y="4.800000" angle="270.00" type="col_cfm" speed="0.75" pos="6.44" lane="-E1_1" slope="0.00" signals="0" acceleration="0.00" distance="6.44"/>
        <vehicle id="v_6" x="11.160631" y="-1.600000" angle="90.00" type="DEFAULT_VEHTYPE" speed="4.86" pos="11.16" lane="E0_2" slope="0.00" signals="0" acceleration="2.34" distance="11.16"/>
    </timestep>
    <timestep time="2.40">
        <vehicle id="v_0" x="6.346826" y="-8.000000" angle="90.00" type="DEFAULT_VEHTYPE" speed="4.84" pos="6.35" lane="E0_0" slope="0.00" signals="0" acceleration="2.46" distance="6.35"/>
        <vehicle id="v_1" x="193.066818" y="8.000000" angle="270.00" type="col_veh_ego" speed="5.53" pos="6.93" lane="-E1_0" slope="0.00" signals="2" acceleration="2.10" distance="6.93"/>
        <vehicle id="v_2" x="108.000000" y="-96.232356" angle="0.00" type="DEFAULT_VEHTYPE" speed="3.74" pos="3.77" lane="-E3_0" slope="0.00" signals="0" acceleration="2.42" distance="3.77"/>
        <vehicle id="v_4" x="193.482699" y="1.600000" angle="270.00" type="col_cfm" speed="0.75" pos="6.52" lane="-E1_2" slope="0.00" signals="0" acceleration="0.00" distance="6.52"/>
        <vehicle id="v_6" x="11.669676" y="-1.600000" angle="90.00" type="DEFAULT_VEHTYPE" speed="5.09" pos="11.67" lane="E0_2" slope="0.00" signals="0" acceleration="2.28" distance="11.67"/>
    </timestep>
    <timestep time="2.50">
        <vehicle id="v_0" x="6.853794" y="-8.000000" angle="90.00" type="DEFAULT_VEHTYPE" speed="5.07" pos="6.85" lane="E0_0" slope="0.00" signals="0" acceleration="2.26" distance="6.85"/>
        <vehicle id="v_1" x="192.493014" y="4.800000" angle="270.00" type="col_veh_ego" speed="5.74" pos="7.51" lane="-E1_1" slope="0.00" signals="2" acceleration="2.05" distance="7.51"/>
        <vehicle id="v_2" x="108.000000" y="-95.840259" angle="0.00" type="DEFAULT_VEHTYPE" speed="3.92" pos="4.16" lane="-E3_0" slope="0.00" signals="0" acceleration="1.77" distance="4.16"/>
        <vehicle id="v_4" x="193.387110" y="1.600000" angle="270.00" type="col_cfm" speed="0.96" pos="6.61" lane="-E1_2" slope="0.00" signals="2" acceleration="2.10" distance="6.61"/>
        <vehicle id="v_6" x="12.203933" y="-1.600000" angle="90.00" type="DEFAULT_VEHTYPE" speed="5.34" pos="12.20" lane="E0_2" slope="0.00" signals="0" acceleration="2.52" distance="12.20"/>
    </timestep>
    <timestep time="2.60">
        <vehicle id="v_0" x="7.375760" y="-8.000000" angle="90.00" type="DEFAULT_VEHTYPE" speed="5.22" pos="7.38" lane="E0_0" slope="0.00" signals="0" acceleration="1.50" distance="7.38"/>
        <vehicle id="v_1" x="191.898437" y="4.800000" angle="270.00" type="col_veh_ego" speed="5.95" pos="8.10" lane="-E1_1" slope="0.00" signals="0" acceleration="2.08" distance="8.10"/>
        <vehicle id="v_2" x="108.000000" y="-95.423957" angle="0.00" type="DEFAULT_VEHTYPE" speed="4.16" pos="4.58" lane="-E3_0" slope="0.00" signals="0" acceleration="2.42" distance="4.58"/>
        <vehicle id="v_4" x="193.269928" y="1.600000" angle="270.00" type="col_cfm" speed="1.17" pos="6.73" lane="-E1_2" slope="0.00" signals="2" acceleration="2.16" distance="6.73"/>
        <vehicle id="v_6" x="12.754476" y="-1.600000" angle="90.00" type="DEFAULT_VEHTYPE" speed="5.51" pos="12.75" lane="E0_2" slope="0.00" signals="0" acceleration="1.63" distance="12.75"/>
    </timestep>
    <timestep time="2.70">
        <vehicle id="v_0" x="7.919425" y="-8.000000" angle="90.00" type="DEFAULT_VEHTYPE" speed="5.44" pos="7.92" lane="E0_0" slope="0.00" signals="0" acceleration="2.17" distance="7.92"/>
        <vehicle id="v_1" x="191.280888" y="4.800000" angle="270.00" type="col_veh_ego" speed="6.18" pos="8.72" lane="-E1_1" slope="0.00" signals="2" acceleration="2.30" distance="8.72"/>
        <vehicle id="v_2" x="108.000000" y="-94.994520" angle="0.00" type="DEFAULT_VEHTYPE" speed="4.29" pos="5.01" lane="-E3_0" slope="0.00" signals="0" acceleration="1.31" distance="5.01"/>
        <vehicle id="v_4" x="193.130224" y="1.600000" angle="270.00" type="col_cfm" speed="1.40" pos="6.87" lane="-E1_2" slope="0.00" signals="2" acceleration="2.25" distance="6.87"/>
        <vehicle id="v_6" x="13.330169" y="-1.600000" angle="90.00" type="DEFAULT_VEHTYPE" speed="5.76" pos="13.33" lane="E0_2" slope="0.00" signals="0" acceleration="2.52" distance="13.33"/>
    </timestep>
    <timestep time="2.80">
        <vehicle id="v_0" x="8.486717" y="-8.000000" angle="90.00" type="DEFAULT_VEHTYPE" speed="5.67" pos="8.49" lane="E0_0" slope="0.00" signals="0" acceleration="2.36" distance="8.49"/>
        <vehicle id="v_1" x="190.639238" y="4.800000" angle="270.00" type="col_veh_ego" speed="6.42" pos="9.36" lane="-E1_1" slope="0.00" signals="2" acceleration="2.41" distance="9.36"/>
        <vehicle id="v_2" x="108.000000" y="-94.548211" angle="0.00" type="DEFAULT_VEHTYPE" speed="4.46" pos="5.45" lane="-E3_0" slope="0.00" signals="0" acceleration="1.69" distance="5.45"/>
        <vehicle id="v_4" x="192.968939" y="1.600000" angle="270.00" type="col_cfm" speed="1.61" pos="7.03" lane="-E1_2" slope="0.00" signals="2" acceleration="2.16" distance="7.03"/>
        <vehicle id="v_6" x="13.930987" y="-1.600000" angle="90.00" type="DEFAULT_VEHTYPE" speed="6.01" pos="13.93" lane="E0_2" slope="0.00" signals="0" acceleration="2.51" distance="13.93"/>
    </timestep>
    <timestep time="2.90">
        <vehicle id="v_0" x="9.075400" y="-8.000000" angle="90.00" type="DEFAULT_VEHTYPE" speed="5.89" pos="9.08" lane="E0_0" slope="0.00" signals="0" acceleration="2.14" distance="9.08"/>
        <vehicle id="v_1" x="189.974276" y="4.800000" angle="270.00" type="col_veh_ego" speed="6.65" pos="10.03" lane="-E1_1" slope="0.00" signals="2" acceleration="2.33" distance="10.03"/>
        <vehicle id="v_2" x="108.000000" y="-94.086509" angle="0.00" type="DEFAULT_VEHTYPE" speed="4.62" pos="5.91" lane="-E3_0" slope="0.00" signals="0" acceleration="1.54" distance="5.91"/>
        <vehicle id="v_4" x="192.782605" y="1.600000" angle="270.00" type="col_cfm" speed="1.86" pos="7.22" lane="-E1_2" slope="0.00" signals="2" acceleration="2.50" distance="7.22"/>
        <vehicle id="v_6" x="14.553194" y="-1.600000" angle="90.00" type="DEFAULT_VEHTYPE" speed="6.22" pos="14.55" lane="E0_2" slope="0.00" signals="0" acceleration="2.14" distance="14.55"/>
    </timestep>
    <timestep time="3.00">