<?xml version="1.0" encoding="UTF-8"?>

<!-- generated on 2023-12-15 17:18:11 by Eclipse SUMO GUI Version 1.18.0
<configuration xmlns:xsi="http://www.w3.org/2001/XMLSchema-instance" xsi:noNamespaceSchemaLocation="http://sumo.dlr.de/xsd/sumoConfiguration.xsd">

    <input>
        <net-file value="C:\Users\vinay\Desktop\ECE_699\Intersection\study1-explore_SUMO\scenario_4\intersec_4.net.xml"/>
        <route-files value="C:\Users\vinay\Desktop\ECE_699\Intersection\study1-explore_SUMO\scenario_4\scene4.rou.xml"/>
    </input>

    <output>
        <fcd-output value="C:\Users\vinay\Desktop\ECE_699\Intersection\study1-explore_SUMO\scenario_4\outputs/fcd_op.xml"/>
        <fcd-output.geo value="true"/>
        <fcd-output.signals value="true"/>
        <fcd-output.distance value="true"/>
        <fcd-output.acceleration value="true"/>
        <summary-output value="C:\Users\vinay\Desktop\ECE_699\Intersection\study1-explore_SUMO\scenario_4\outputs/sum_op.xml"/>
        <lanechange-output value="C:\Users\vinay\Desktop\ECE_699\Intersection\study1-explore_SUMO\scenario_4\outputs/lane_change_op.xml"/>
        <lanechange-output.started value="true"/>
        <lanechange-output.ended value="true"/>
        <lanechange-output.xy value="true"/>
        <collision-output value="C:\Users\vinay\Desktop\ECE_699\Intersection\study1-explore_SUMO\scenario_4\outputs/collision.xml"/>
        <statistic-output value="C:\Users\vinay\Desktop\ECE_699\Intersection\study1-explore_SUMO\scenario_4\outputs/stats.xml"/>
    </output>

    <time>
        <step-length value="0.1"/>
    </time>

    <processing>
        <collision.action value="remove"/>
        <collision.stoptime value="30.00"/>
        <collision.check-junctions value="true"/>
    </processing>

</configuration>
-->

<fcd-export xmlns:xsi="http://www.w3.org/2001/XMLSchema-instance" xsi:noNamespaceSchemaLocation="http://sumo.dlr.de/xsd/fcd_file.xsd">
    <timestep time="0.00">
        <vehicle id="t_0" x="5.100000" y="-8.000000" angle="90.00" type="DEFAULT_VEHTYPE" speed="0.00" pos="5.10" lane="E0_0" slope="0.00" signals="0" acceleration="0.00" distance="5.10"/>
        <vehicle id="t_1" x="5.100000" y="-4.800000" angle="90.00" type="DEFAULT_VEHTYPE" speed="0.00" pos="5.10" lane="E0_1" slope="0.00" signals="0" acceleration="0.00" distance="5.10"/>
        <vehicle id="t_2" x="194.900000" y="4.800000" angle="270.00" type="DEFAULT_VEHTYPE" speed="0.00" pos="5.10" lane="-E1_1" slope="0.00" signals="0" acceleration="0.00" distance="5.10"/>
        <vehicle id="t_3" x="194.900000" y="1.600000" angle="270.00" type="DEFAULT_VEHTYPE" speed="0.00" pos="5.10" lane="-E1_2" slope="0.00" signals="0" acceleration="0.00" distance="5.10"/>
        <vehicle id="v_0" x="104.800000" y="-94.900000" angle="0.00" type="ego_veh" speed="0.00" pos="5.10" lane="-E3_1" slope="0.00" signals="0" acceleration="0.00" distance="5.10"/>
    </timestep>
    <timestep time="0.10">
        <vehicle id="t_0" x="5.124980" y="-8.000000" angle="90.00" type="DEFAULT_VEHTYPE" speed="0.25" pos="5.12" lane="E0_0" slope="0.00" signals="0" acceleration="2.50" distance="5.12"/>
        <vehicle id="t_1" x="5.125128" y="-4.800000" angle="90.00" type="DEFAULT_VEHTYPE" speed="0.25" pos="5.13" lane="E0_1" slope="0.00" signals="0" acceleration="2.51" distance="5.13"/>
        <vehicle id="t_2" x="194.874607" y="4.800000" angle="270.00" type="DEFAULT_VEHTYPE" speed="0.25" pos="5.13" lane="-E1_1" slope="0.00" signals="0" acceleration="2.54" distance="5.13"/>
        <vehicle id="t_3" x="194.875295" y="1.600000" angle="270.00" type="DEFAULT_VEHTYPE" speed="0.25" pos="5.12" lane="-E1_2" slope="0.00" signals="0" acceleration="2.47" distance="5.12"/>
        <vehicle id="v_0" x="104.800000" y="-94.898510" angle="0.00" type="ego_veh" speed="0.01" pos="5.10" lane="-E3_1" slope="0.00" signals="8" acceleration="0.15" distance="5.10"/>
    </timestep>
    <timestep time="0.20">
        <vehicle id="t_0" x="5.175521" y="-8.000000" angle="90.00" type="DEFAULT_VEHTYPE" speed="0.51" pos="5.18" lane="E0_0" slope="0.00" signals="0" acceleration="2.56" distance="5.18"/>
        <vehicle id="t_1" x="5.174101" y="-4.800000" angle="90.00" type="DEFAULT_VEHTYPE" speed="0.49" pos="5.17" lane="E0_1" slope="0.00" signals="0" acceleration="2.38" distance="5.17"/>
        <vehicle id="t_2" x="194.825517" y="4.800000" angle="270.00" type="DEFAULT_VEHTYPE" speed="0.49" pos="5.17" lane="-E1_1" slope="0.00" signals="0" acceleration="2.37" distance="5.17"/>
        <vehicle id="t_3" x="194.826428" y="1.600000" angle="270.00" type="DEFAULT_VEHTYPE" speed="0.49" pos="5.17" lane="-E1_2" slope="0.00" signals="0" acceleration="2.42" distance="5.17"/>
        <vehicle id="v_0" x="104.800000" y="-94.894266" angle="0.00" type="ego_veh" speed="0.04" pos="5.11" lane="-E3_1" slope="0.00" signals="8" acceleration="0.28" distance="5.11"/>
    </timestep>
    <timestep time="0.30">
        <vehicle id="t_0" x="5.249154" y="-8.000000" angle="90.00" type="DEFAULT_VEHTYPE" speed="0.74" pos="5.25" lane="E0_0" slope="0.00" signals="0" acceleration="2.31" distance="5.25"/>
        <vehicle id="t_1" x="5.249045" y="-4.800000" angle="90.00" type="DEFAULT_VEHTYPE" speed="0.75" pos="5.25" lane="E0_1" slope="0.00" signals="0" acceleration="2.60" distance="5.25"/>
        <vehicle id="t_2" x="194.750916" y="4.800000" angle="270.00" type="DEFAULT_VEHTYPE" speed="0.75" pos="5.25" lane="-E1_1" slope="0.00" signals="0" acceleration="2.55" distance="5.25"/>
        <vehicle id="t_3" x="194.753380" y="1.600000" angle="270.00" type="DEFAULT_VEHTYPE" speed="0.73" pos="5.25" lane="-E1_2" slope="0.00" signals="0" acceleration="2.42" distance="5.25"/>
        <vehicle id="v_0" x="104.800000" y="-94.885149" angle="0.00" type="ego_veh" speed="0.09" pos="5.11" lane="-E3_1" slope="0.00" signals="8" acceleration="0.49" distance="5.11"/>
    </timestep>
    <timestep time="0.40">
        <vehicle id="t_0" x="5.347442" y="-8.000000" angle="90.00" type="DEFAULT_VEHTYPE" speed="0.98" pos="5.35" lane="E0_0" slope="0.00" signals="0" acceleration="2.47" distance="5.35"/>
        <vehicle id="t_1" x="5.349200" y="-4.800000" angle="90.00" type="DEFAULT_VEHTYPE" speed="1.00" pos="5.35" lane="E0_1" slope="0.00" signals="0" acceleration="2.52" distance="5.35"/>
        <vehicle id="t_2" x="194.652620" y="4.800000" angle="270.00" type="DEFAULT_VEHTYPE" speed="0.98" pos="5.35" lane="-E1_1" slope="0.00" signals="0" acceleration="2.37" distance="5.35"/>
        <vehicle id="t_3" x="194.656973" y="1.600000" angle="270.00" type="DEFAULT_VEHTYPE" speed="0.96" pos="5.34" lane="-E1_2" slope="0.00" signals="0" acceleration="2.34" distance="5.34"/>
        <vehicle id="v_0" x="104.800000" y="-94.867972" angle="0.00" type="ego_veh" speed="0.17" pos="5.13" lane="-E3_1" slope="0.00" signals="0" acceleration="0.81" distance="5.13"/>
    </timestep>
    <timestep time="0.50">
        <vehicle id="t_0" x="5.469875" y="-8.000000" angle="90.00" type="DEFAULT_VEHTYPE" speed="1.22" pos="5.47" lane="E0_0" slope="0.00" signals="0" acceleration="2.41" distance="5.47"/>
        <vehicle id="t_1" x="5.473848" y="-4.800000" angle="90.00" type="DEFAULT_VEHTYPE" speed="1.25" pos="5.47" lane="E0_1" slope="0.00" signals="0" acceleration="2.45" distance="5.47"/>
        <vehicle id="t_2" x="194.529710" y="4.800000" angle="270.00" type="DEFAULT_VEHTYPE" speed="1.23" pos="5.47" lane="-E1_1" slope="0.00" signals="0" acceleration="2.46" distance="5.47"/>
        <vehicle id="t_3" x="194.535188" y="1.600000" angle="270.00" type="DEFAULT_VEHTYPE" speed="1.22" pos="5.46" lane="-E1_2" slope="0.00" signals="0" acceleration="2.54" distance="5.46"/>
        <vehicle id="v_0" x="104.800000" y="-94.838663" angle="0.00" type="ego_veh" speed="0.29" pos="5.16" lane="-E3_1" slope="0.00" signals="0" acceleration="1.21" distance="5.16"/>
    </timestep>
    <timestep time="0.60">
        <vehicle id="t_0" x="5.615712" y="-8.000000" angle="90.00" type="DEFAULT_VEHTYPE" speed="1.46" pos="5.62" lane="E0_0" slope="0.00" signals="0" acceleration="2.34" distance="5.62"/>
        <vehicle id="t_1" x="5.623444" y="-4.800000" angle="90.00" type="DEFAULT_VEHTYPE" speed="1.50" pos="5.62" lane="E0_1" slope="0.00" signals="0" acceleration="2.49" distance="5.62"/>
        <vehicle id="t_2" x="194.386015" y="4.800000" angle="270.00" type="DEFAULT_VEHTYPE" speed="1.44" pos="5.61" lane="-E1_1" slope="0.00" signals="0" acceleration="2.08" distance="5.61"/>
        <vehicle id="t_3" x="194.393407" y="1.600000" angle="270.00" type="DEFAULT_VEHTYPE" speed="1.42" pos="5.61" lane="-E1_2" slope="0.00" signals="0" acceleration="2.00" distance="5.61"/>
        <vehicle id="v_0" x="104.800000" y="-94.792967" angle="0.00" type="ego_veh" speed="0.46" pos="5.21" lane="-E3_1" slope="0.00" signals="0" acceleration="1.64" distance="5.21"/>
    </timestep>
    <timestep time="0.70">
        <vehicle id="t_0" x="5.780665" y="-8.000000" angle="90.00" type="DEFAULT_VEHTYPE" speed="1.65" pos="5.78" lane="E0_0" slope="0.00" signals="0" acceleration="1.91" distance="5.78"/>
        <vehicle id="t_1" x="5.795270" y="-4.800000" angle="90.00" type="DEFAULT_VEHTYPE" speed="1.72" pos="5.80" lane="E0_1" slope="0.00" signals="0" acceleration="2.22" distance="5.80"/>
        <vehicle id="t_2" x="194.218323" y="4.800000" angle="270.00" type="DEFAULT_VEHTYPE" speed="1.68" pos="5.78" lane="-E1_1" slope="0.00" signals="0" acceleration="2.40" distance="5.78"/>
        <vehicle id="t_3" x="194.228047" y="1.600000" angle="270.00" type="DEFAULT_VEHTYPE" speed="1.65" pos="5.77" lane="-E1_2" slope="0.00" signals="0" acceleration="2.36" distance="5.77"/>
        <vehicle id="v_0" x="104.800000" y="-94.727291" angle="0.00" type="ego_veh" speed="0.66" pos="5.27" lane="-E3_1" slope="0.00" signals="0" acceleration="2.00" distance="5.27"/>
    </timestep>
    <timestep time="0.80">
        <vehicle id="t_0" x="5.965076" y="-8.000000" angle="90.00" type="DEFAULT_VEHTYPE" speed="1.84" pos="5.97" lane="E0_0" slope="0.00" signals="0" acceleration="1.95" distance="5.97"/>
        <vehicle id="t_1" x="5.988244" y="-4.800000" angle="90.00" type="DEFAULT_VEHTYPE" speed="1.93" pos="5.99" lane="E0_1" slope="0.00" signals="0" acceleration="2.11" distance="5.99"/>
        <vehicle id="t_2" x="194.029744" y="4.800000" angle="270.00" type="DEFAULT_VEHTYPE" speed="1.89" pos="5.97" lane="-E1_1" slope="0.00" signals="0" acceleration="2.09" distance="5.97"/>
        <vehicle id="t_3" x="194.043899" y="1.600000" angle="270.00" type="DEFAULT_VEHTYPE" speed="1.84" pos="5.96" lane="-E1_2" slope="0.00" signals="0" acceleration="1.88" distance="5.96"/>
        <vehicle id="v_0" x="104.800000" y="-94.639100" angle="0.00" type="ego_veh" speed="0.88" pos="5.36" lane="-E3_1" slope="0.00" signals="0" acceleration="2.25" distance="5.36"/>
    </timestep>
    <timestep time="0.90">
        <vehicle id="t_0" x="6.165160" y="-8.000000" angle="90.00" type="DEFAULT_VEHTYPE" speed="2.00" pos="6.17" lane="E0_0" slope="0.00" signals="0" acceleration="1.57" distance="6.17"/>
        <vehicle id="t_1" x="6.202459" y="-4.800000" angle="90.00" type="DEFAULT_VEHTYPE" speed="2.14" pos="6.20" lane="E0_1" slope="0.00" signals="0" acceleration="2.12" distance="6.20"/>
        <vehicle id="t_2" x="193.823519" y="4.800000" angle="270.00" type="DEFAULT_VEHTYPE" speed="2.06" pos="6.18" lane="-E1_1" slope="0.00" signals="0" acceleration="1.76" distance="6.18"/>
        <vehicle id="t_3" x="193.836280" y="1.600000" angle="270.00" type="DEFAULT_VEHTYPE" speed="2.08" pos="6.16" lane="-E1_2" slope="0.00" signals="0" acceleration="2.35" distance="6.16"/>
        <vehicle id="v_0" x="104.800000" y="-94.526824" angle="0.00" type="ego_veh" speed="1.12" pos="5.47" lane="-E3_1" slope="0.00" signals="0" acceleration="2.41" distance="5.47"/>
    </timestep>
    <timestep time="1.00">
        <vehicle id="t_0" x="6.388270" y="-8.000000" angle="90.00" type="DEFAULT_VEHTYPE" speed="2.23" pos="6.39" lane="E0_0" slope="0.00" signals="0" acceleration="2.30" distance="6.39"/>
        <vehicle id="t_1" x="6.435781" y="-4.800000" angle="90.00" type="DEFAULT_VEHTYPE" speed="2.33" pos="6.44" lane="E0_1" slope="0.00" signals="0" acceleration="1.91" distance="6.44"/>
        <vehicle id="t_2" x="193.595119" y="4.800000" angle="270.00" type="DEFAULT_VEHTYPE" speed="2.28" pos="6.40" lane="-E1_1" slope="0.00" signals="0" acceleration="2.22" distance="6.40"/>
        <vehicle id="t_3" x="193.604324" y="1.600000" angle="270.00" type="DEFAULT_VEHTYPE" speed="2.32" pos="6.40" lane="-E1_2" slope="0.00" signals="0" acceleration="2.43" distance="6.40"/>
        <vehicle id="v_0" x="104.800000" y="-94.389572" angle="0.00" type="ego_veh" speed="1.37" pos="5.61" lane="-E3_1" slope="0.00" signals="0" acceleration="2.50" distance="5.61"/>
    </timestep>
    <timestep time="1.10">
        <vehicle id="t_0" x="6.628843" y="-8.000000" angle="90.00" type="DEFAULT_VEHTYPE" speed="2.41" pos="6.63" lane="E0_0" slope="0.00" signals="0" acceleration="1.75" distance="6.63"/>
        <vehicle id="t_1" x="6.688832" y="-4.800000" angle="90.00" type="DEFAULT_VEHTYPE" speed="2.53" pos="6.69" lane="E0_1" slope="0.00" signals="0" acceleration="1.97" distance="6.69"/>
        <vehicle id="t_2" x="193.343617" y="4.800000" angle="270.00" type="DEFAULT_VEHTYPE" speed="2.52" pos="6.66" lane="-E1_1" slope="0.00" signals="0" acceleration="2.31" distance="6.66"/>
        <vehicle id="t_3" x="193.346542" y="1.600000" angle="270.00" type="DEFAULT_VEHTYPE" speed="2.58" pos="6.65" lane="-E1_2" slope="0.00" signals="0" acceleration="2.58" distance="6.65"/>
        <vehicle id="v_0" x="104.800000" y="-94.226859" angle="0.00" type="ego_veh" speed="1.63" pos="5.77" lane="-E3_1" slope="0.00" signals="0" acceleration="2.55" distance="5.77"/>
    </timestep>
    <timestep time="1.20">
        <vehicle id="t_0" x="6.894149" y="-8.000000" angle="90.00" type="DEFAULT_VEHTYPE" speed="2.65" pos="6.89" lane="E0_0" slope="0.00" signals="0" acceleration="2.47" distance="6.89"/>
        <vehicle id="t_1" x="6.959700" y="-4.800000" angle="90.00" type="DEFAULT_VEHTYPE" speed="2.71" pos="6.96" lane="E0_1" slope="0.00" signals="0" acceleration="1.78" distance="6.96"/>
        <vehicle id="t_2" x="193.066976" y="4.800000" angle="270.00" type="DEFAULT_VEHTYPE" speed="2.77" pos="6.93" lane="-E1_1" slope="0.00" signals="0" acceleration="2.51" distance="6.93"/>
        <vehicle id="t_3" x="193.108205" y="1.600000" angle="270.00" type="DEFAULT_VEHTYPE" speed="2.38" pos="6.89" lane="-E1_2" slope="0.00" signals="9" acceleration="-1.94" distance="6.89"/>
        <vehicle id="v_0" x="104.800000" y="-94.038430" angle="0.00" type="ego_veh" speed="1.88" pos="5.96" lane="-E3_1" slope="0.00" signals="0" acceleration="2.57" distance="5.96"/>
    </timestep>
    <timestep time="1.30">
        <vehicle id="t_0" x="7.173671" y="-8.000000" angle="90.00" type="DEFAULT_VEHTYPE" speed="2.80" pos="7.17" lane="E0_0" slope="0.00" signals="0" acceleration="1.42" distance="7.17"/>
        <vehicle id="t_1" x="7.253833" y="-4.800000" angle="90.00" type="DEFAULT_VEHTYPE" speed="2.94" pos="7.25" lane="E0_1" slope="0.00" signals="0" acceleration="2.33" distance="7.25"/>
        <vehicle id="t_2" x="192.770408" y="4.800000" angle="270.00" type="DEFAULT_VEHTYPE" speed="2.97" pos="7.23" lane="-E1_1" slope="0.00" signals="0" acceleration="1.99" distance="7.23"/>
        <vehicle id="t_3" x="192.889313" y="1.600000" angle="270.00" type="DEFAULT_VEHTYPE" speed="2.19" pos="7.11" lane="-E1_2" slope="0.00" signals="9" acceleration="-1.94" distance="7.11"/>
        <vehicle id="v_0" x="104.800000" y="-93.824159" angle="0.00" type="ego_veh" speed="2.14" pos="6.18" lane="-E3_1" slope="0.00" signals="0" acceleration="2.58" distance="6.18"/>
    </timestep>
    <timestep time="1.40">
        <vehicle id="t_0" x="7.467155" y="-8.000000" angle="90.00" type="DEFAULT_VEHTYPE" speed="2.93" pos="7.47" lane="E0_0" slope="0.00" signals="0" acceleration="1.40" distance="7.47"/>
        <vehicle id="t_1" x="7.567709" y="-4.800000" angle="90.00" type="DEFAULT_VEHTYPE" speed="3.14" pos="7.57" lane="E0_1" slope="0.00" signals="0" acceleration="1.97" distance="7.57"/>
        <vehicle id="t_2" x="192.449262" y="4.800000" angle="270.00" type="DEFAULT_VEHTYPE" speed="3.21" pos="7.55" lane="-E1_1" slope="0.00" signals="0" acceleration="2.46" distance="7.55"/>
        <vehicle id="t_3" x="192.689865" y="1.600000" angle="270.00" type="DEFAULT_VEHTYPE" speed="1.99" pos="7.31" lane="-E1_2" slope="0.00" signals="9" acceleration="-1.94" distance="7.31"/>
        <vehicle id="v_0" x="104.800000" y="-93.583909" angle="0.00" type="ego_veh" speed="2.40" pos="6.42" lane="-E3_1" slope="0.00" signals="0" acceleration="2.60" distance="6.42"/>
    </timestep>
    <timestep time="1.50">
        <vehicle id="t_0" x="7.780317" y="-8.000000" angle="90.00" type="DEFAULT_VEHTYPE" speed="3.13" pos="7.78" lane="E0_0" slope="0.00" signals="0" acceleration="1.97" distance="7.78"/>
        <vehicle id="t_1" x="7.904447" y="-1.600000" angle="90.00" type="DEFAULT_VEHTYPE" speed="3.37" pos="7.90" lane="E0_2" slope="0.00" signals="0" acceleration="2.29" distance="7.90"/>
        <vehicle id="t_2" x="192.106815" y="4.800000" angle="270.00" type="DEFAULT_VEHTYPE" speed="3.42" pos="7.89" lane="-E1_1" slope="0.00" signals="0" acceleration="2.13" distance="7.89"/>
        <vehicle id="t_3" x="192.509862" y="1.600000" angle="270.00" type="DEFAULT_VEHTYPE" speed="1.80" pos="7.49" lane="-E1_2" slope="0.00" signals="9" acceleration="-1.94" distance="7.49"/>
        <vehicle id="v_0" x="104.800000" y="-93.317689" angle="0.00" type="ego_veh" speed="2.66" pos="6.68" lane="-E3_1" slope="0.00" signals="0" acceleration="2.60" distance="6.68"/>
    </timestep>
    <timestep time="1.60">
        <vehicle id="t_0" x="8.112208" y="-8.000000" angle="90.00" type="DEFAULT_VEHTYPE" speed="3.32" pos="8.11" lane="E0_0" slope="0.00" signals="0" acceleration="1.87" distance="8.11"/>
        <vehicle id="t_1" x="8.259984" y="-1.600000" angle="90.00" type="DEFAULT_VEHTYPE" speed="3.56" pos="8.26" lane="E0_2" slope="0.00" signals="2" acceleration="1.88" distance="8.26"/>
        <vehicle id="t_2" x="191.744032" y="4.800000" angle="270.00" type="DEFAULT_VEHTYPE" speed="3.63" pos="8.26" lane="-E1_1" slope="0.00" signals="0" acceleration="2.03" distance="8.26"/>
        <vehicle id="t_3" x="192.349303" y="1.600000" angle="270.00" type="DEFAULT_VEHTYPE" speed="1.61" pos="7.65" lane="-E1_2" slope="0.00" signals="9" acceleration="-1.94" distance="7.65"/>
        <vehicle id="v_0" x="104.800000" y="-93.025514" angle="0.00" type="ego_veh" speed="2.92" pos="6.97" lane="-E3_1" slope="0.00" signals="0" acceleration="2.60" distance="6.97"/>
    </timestep>
    <timestep time="1.70">
        <vehicle id="t_0" x="8.460758" y="-8.000000" angle="90.00" type="DEFAULT_VEHTYPE" speed="3.49" pos="8.46" lane="E0_0" slope="0.00" signals="0" acceleration="1.67" distance="8.46"/>
        <vehicle id="t_1" x="8.634934" y="-1.600000" angle="90.00" type="DEFAULT_VEHTYPE" speed="3.75" pos="8.63" lane="E0_2" slope="0.00" signals="2" acceleration="1.94" distance="8.63"/>
        <vehicle id="t_2" x="191.358056" y="4.800000" angle="270.00" type="DEFAULT_VEHTYPE" speed="3.86" pos="8.64" lane="-E1_1" slope="0.00" signals="0" acceleration="2.32" distance="8.64"/>
        <vehicle id="t_3" x="192.208188" y="1.600000" angle="270.00" type="DEFAULT_VEHTYPE" speed="1.41" pos="7.79" lane="-E1_2" slope="0.00" signals="9" acceleration="-1.94" distance="7.79"/>
        <vehicle id="v_0" x="104.800000" y="-92.707400" angle="0.00" type="ego_veh" speed="3.18" pos="7.29" lane="-E3_1" slope="0.00" signals="0" acceleration="2.59" distance="7.29"/>
    </timestep>
    <timestep time="1.80">
        <vehicle id="t_0" x="8.833574" y="-8.000000" angle="90.00" type="DEFAULT_VEHTYPE" speed="3.73" pos="8.83" lane="E0_0" slope="0.00" signals="0" acceleration="2.43" distance="8.83"/>
        <vehicle id="t_1" x="9.034157" y="-1.600000" angle="90.00" type="DEFAULT_VEHTYPE" speed="3.99" pos="9.03" lane="E0_2" slope="0.00" signals="2" acceleration="2.43" distance="9.03"/>
        <vehicle id="t_2" x="190.948691" y="4.800000" angle="270.00" type="DEFAULT_VEHTYPE" speed="4.09" pos="9.05" lane="-E1_1" slope="0.00" signals="0" acceleration="2.34" distance="9.05"/>
        <vehicle id="t_3" x="192.086518" y="1.600000" angle="270.00" type="DEFAULT_VEHTYPE" speed="1.22" pos="7.91" lane="-E1_2" slope="0.00" signals="9" acceleration="-1.94" distance="7.91"/>
        <vehicle id="v_0" x="101.600000" y="-92.362735" angle="0.00" type="ego_veh" speed="3.45" pos="7.64" lane="-E3_2" slope="0.00" signals="0" acceleration="2.66" distance="7.64"/>
    </timestep>
    <timestep time="1.90">
        <vehicle id="t_0" x="9.222072" y="-8.000000" angle="90.00" type="DEFAULT_VEHTYPE" speed="3.88" pos="9.22" lane="E0_0" slope="0.00" signals="0" acceleration="1.57" distance="9.22"/>
        <vehicle id="t_1" x="9.451254" y="-1.600000" angle="90.00" type="DEFAULT_VEHTYPE" speed="4.17" pos="9.45" lane="E0_2" slope="0.00" signals="2" acceleration="1.79" distance="9.45"/>
        <vehicle id="t_2" x="190.515190" y="4.800000" angle="270.00" type="DEFAULT_VEHTYPE" speed="4.34" pos="9.48" lane="-E1_1" slope="0.00" signals="0" acceleration="2.41" distance="9.48"/>
        <vehicle id="t_3" x="191.984292" y="1.600000" angle="270.00" type="DEFAULT_VEHTYPE" speed="1.02" pos="8.02" lane="-E1_2" slope="0.00" signals="9" acceleration="-1.94" distance="8.02"/>
        <vehicle id="v_0" x="101.600000" y="-92.003088" angle="0.00" type="ego_veh" speed="3.60" pos="8.00" lane="-E3_2" slope="0.00" signals="2" acceleration="1.50" distance="8.00"/>
    </timestep>
    <timestep time="2.00">
        <vehicle id="t_0" x="9.634183" y="-8.000000" angle="90.00" type="DEFAULT_VEHTYPE" speed="4.12" pos="9.63" lane="E0_0" slope="0.00" signals="0" acceleration="2.36" distance="9.63"/>
        <vehicle id="t_1" x="9.886477" y="-1.600000" angle="90.00" type="DEFAULT_VEHTYPE" speed="4.35" pos="9.89" lane="E0_2" slope="0.00" signals="2" acceleration="1.81" distance="9.89"/>
        <vehicle id="t_2" x="190.058136" y="4.800000" angle="270.00" type="DEFAULT_VEHTYPE" speed="4.57" pos="9.94" lane="-E1_1" slope="0.00" signals="0" acceleration="2.36" distance="9.94"/>
        <vehicle id="t_3" x="191.901511" y="1.600000" angle="270.00" type="DEFAULT_VEHTYPE" speed="0.83" pos="8.10" lane="-E1_2" slope="0.00" signals="9" acceleration="-1.94" distance="8.10"/>
        <vehicle id="v_0" x="101.600000" y="-91.633320" angle="0.00" type="ego_veh" speed="3.70" pos="8.37" lane="-E3_2" slope="0.00" signals="2" acceleration="1.01" distance="8.37"/>
    </timestep>
    <timestep time="2.10">
        <vehicle id="t_0" x="10.061362" y="-8.000000" angle="90.00" type="DEFAULT_VEHTYPE" speed="4.27" pos="10.06" lane="E0_0" slope="0.00" signals="0" acceleration="1.51" distance="10.06"/>
        <vehicle id="t_1" x="10.340663" y="-1.600000" angle="90.00" type="DEFAULT_VEHTYPE" speed="4.54" pos="10.34" lane="E0_2" slope="0.00" signals="2" acceleration="1.90" distance="10.34"/>
        <vehicle id="t_2" x="189.577696" y="4.800000" angle="270.00" type="DEFAULT_VEHTYPE" speed="4.80" pos="10.42" lane="-E1_1" slope="0.00" signals="0" acceleration="2.34" distance="10.42"/>
        <vehicle id="t_3" x="191.838174" y="1.600000" angle="270.00" type="DEFAULT_VEHTYPE" speed="0.63" pos="8.16" lane="-E1_2" slope="0.00" signals="9" acceleration="-1.94" distance="8.16"/>
        <vehicle id="v_0" x="101.600000" y="-91.251230" angle="0.00" type="ego_veh" speed="3.82" pos="8.75" lane="-E3_2" slope="0.00" signals="2" acceleration="1.23" distance="8.75"/>
    </timestep>
    <timestep time="2.20">
        <vehicle id="t_0" x="10.502606" y="-8.000000" angle="90.00" type="DEFAULT_VEHTYPE" speed="4.41" pos="10.50" lane="E0_0" slope="0.00" signals="0" acceleration="1.41" distance="10.50"/>
        <vehicle id="t_1" x="10.819848" y="-1.600000" angle="90.00" type="DEFAULT_VEHTYPE" speed="4.79" pos="10.82" lane="E0_2" slope="0.00" signals="2" acceleration="2.50" distance="10.82"/>
        <vehicle id="t_2" x="189.074284" y="4.800000" angle="270.00" type="DEFAULT_VEHTYPE" speed="5.03" pos="10.93" lane="-E1_1" slope="0.00" signals="0" acceleration="2.30" distance="10.93"/>
        <vehicle id="t_3" x="191.794281" y="1.600000" angle="270.00" type="DEFAULT_VEHTYPE" speed="0.44" pos="8.21" lane="-E1_2" slope="0.00" signals="9" acceleration="-1.94" distance="8.21"/>
        <vehicle id="v_0" x="101.600000" y="-90.857049" angle="0.00" type="ego_veh" speed="3.94" pos="9.14" lane="-E3_2" slope="0.00" signals="2" acceleration="1.21" distance="9.14"/>
    </timestep>
    <timestep time="2.30">
        <vehicle id="t_0" x="10.962420" y="-8.000000" angle="90.00" type="DEFAULT_VEHTYPE" speed="4.60" pos="10.96" lane="E0_0" slope="0.00" signals="0" acceleration="1.86" distance="10.96"/>
        <vehicle id="t_1" x="11.312186" y="-1.600000" angle="90.00" type="DEFAULT_VEHTYPE" speed="4.92" pos="11.31" lane="E0_2" slope="0.00" signals="2" acceleration="1.32" distance="11.31"/>
        <vehicle id="t_2" x="188.546771" y="4.800000" angle="270.00" type="DEFAULT_VEHTYPE" speed="5.28" pos="11.45" lane="-E1_1" slope="0.00" signals="0" acceleration="2.41" distance="11.45"/>
        <vehicle id="t_3" x="191.769834" y="1.600000" angle="270.00" type="DEFAULT_VEHTYPE" speed="0.24" pos="8.23" lane="-E1_2" slope="0.00" signals="9" acceleration="-1.94" distance="8.23"/>
        <vehicle id="v_0" x="101.600000" y="-90.454708" angle="0.00" type="ego_veh" speed="4.02" pos="9.55" lane="-E3_2" slope="0.00" signals="2" acceleration="0.82" distance="9.55"/>
    </timestep>
    <timestep time="2.40">
        <vehicle id="t_0" x="11.446826" y="-8.000000" angle="90.00" type="DEFAULT_VEHTYPE" speed="4.84" pos="11.45" lane="E0_0" slope="0.00" signals="0" acceleration="2.46" distance="11.45"/>
        <vehicle id="t_1" x="11.825756" y="-1.600000" angle="90.00" type="DEFAULT_VEHTYPE" speed="5.14" pos="11.83" lane="E0_2" slope="0.00" signals="2" acceleration="2.12" distance="11.83"/>
        <vehicle id="t_2" x="187.995946" y="4.800000" angle="270.00" type="DEFAULT_VEHTYPE" speed="5.51" pos="12.00" lane="-E1_1" slope="0.00" signals="0" acceleration="2.33" distance="12.00"/>
        <vehicle id="t_3" x="191.764830" y="1.600000" angle="270.00" type="DEFAULT_VEHTYPE" speed="0.05" pos="8.24" lane="-E1_2" slope="0.00" signals="9" acceleration="-1.94" distance="8.24"/>
        <vehicle id="v_0" x="101.600000" y="-90.042337" angle="0.00" type="ego_veh" speed="4.12" pos="9.96" lane="-E3_2" slope="0.00" signals="2" acceleration="1.00" distance="9.96"/>
    </timestep>
    <timestep time="2.50">
        <vehicle id="t_0" x="11.953794" y="-8.000000" angle="90.00" type="DEFAULT_VEHTYPE" speed="5.07" pos="11.95" lane="E0_0" slope="0.00" signals="0" acceleration="2.26" distance="11.95"/>
        <vehicle id="t_1" x="12.357281" y="-1.600000" angle="90.00" type="DEFAULT_VEHTYPE" speed="5.32" pos="12.36" lane="E0_2" slope="0.00" signals="2" acceleration="1.80" distance="12.36"/>
        <vehicle id="t_2" x="187.427691" y="4.800000" angle="270.00" type="DEFAULT_VEHTYPE" speed="5.68" pos="12.57" lane="-E1_1" slope="0.00" signals="0" acceleration="1.74" distance="12.57"/>
        <vehicle id="t_3" x="191.734646" y="1.600000" angle="270.00" type="DEFAULT_VEHTYPE" speed="0.30" pos="8.27" lane="-E1_2" slope="0.00" signals="0" acceleration="2.52" distance="8.27"/>
        <vehicle id="v_0" x="101.600000" y="-89.627674" angle="0.00" type="ego_veh" speed="4.15" pos="10.37" lane="-E3_2" slope="0.00" signals="2" acceleration="0.23" distance="10.37"/>
    </timestep>
    <timestep time="2.60">
        <vehicle id="t_0" x="12.475760" y="-8.000000" angle="90.00" type="DEFAULT_VEHTYPE" speed="5.22" pos="12.48" lane="E0_0" slope="0.00" signals="0" acceleration="1.50" distance="12.48"/>
        <vehicle id="t_1" x="12.910902" y="-1.600000" angle="90.00" type="DEFAULT_VEHTYPE" speed="5.54" pos="12.91" lane="E0_2" slope="0.00" signals="2" acceleration="2.21" distance="12.91"/>
        <vehicle id="t_2" x="186.836058" y="4.800000" angle="270.00" type="DEFAULT_VEHTYPE" speed="5.92" pos="13.16" lane="-E1_1" slope="0.00" signals="0" acceleration="2.34" distance="13.16"/>
        <vehicle id="t_3" x="191.680373" y="1.600000" angle="270.00" type="DEFAULT_VEHTYPE" speed="0.54" pos="8.32" lane="-E1_2" slope="0.00" signals="0" acceleration="2.41" distance="8.32"/>
        <vehicle id="v_0" x="101.600000" y="-89.215717" angle="0.00" type="ego_veh" speed="4.12" pos="10.78" lane="-E3_2" slope="0.00" signals="2" acceleration="-0.27" distance="10.78"/>
    </timestep>
    <timestep time="2.70">
        <vehicle id="t_0" x="13.019425" y="-8.000000" angle="90.00" type="DEFAULT_VEHTYPE" speed="5.44" pos="13.02" lane="E0_0" slope="0.00" signals="0" acceleration="2.17" distance="13.02"/>
        <vehicle id="t_1" x="13.486195" y="-1.600000" angle="90.00" type="DEFAULT_VEHTYPE" speed="5.75" pos="13.49" lane="E0_2" slope="0.00" signals="2" acceleration="2.17" distance="13.49"/>
        <vehicle id="t_2" x="186.223353" y="4.800000" angle="270.00" type="DEFAULT_VEHTYPE" speed="6.13" pos="13.78" lane="-E1_1" slope="0.00" signals="0" acceleration="2.11" distance="13.78"/>
        <vehicle id="t_3" x="191.602390" y="1.600000" angle="270.00" type="DEFAULT_VEHTYPE" speed="0.78" pos="8.40" lane="-E1_2" slope="0.00" signals="0" acceleration="2.37" distance="8.40"/>
        <vehicle id="v_0" x="101.600000" y="-88.810915" angle="0.00" type="ego_veh" speed="4.05" pos="11.19" lane="-E3_2" slope="0.00" signals="10" acceleration="-0.72" distance="11.19"/>
    </timestep>
    <timestep time="2.80">